                         Program Version 5.0.4 -  RELEASE  -
|  1> ! M062X def2-TZVP OPT FREQ
|  2> %pal nprocs 16 end
|  3> *XYZFile 0 2 model_opt.xyz
|  4>
|  5>                          ****END OF INPUT****
 Total Charge           Charge          ....    0
 Multiplicity           Mult            ....    2
 Number of Electrons    NEL             ....   73
FINAL SINGLE POINT ENERGY      -440.765093448314
FINAL SINGLE POINT ENERGY      -440.767448123751
FINAL SINGLE POINT ENERGY      -440.767531629422
FINAL SINGLE POINT ENERGY      -440.767549932588
FINAL SINGLE POINT ENERGY      -440.767557472044
FINAL SINGLE POINT ENERGY      -440.767561425590
FINAL SINGLE POINT ENERGY      -440.767565366505
FINAL SINGLE POINT ENERGY      -440.767571418789
FINAL SINGLE POINT ENERGY      -440.767571717961
                    ***********************HURRAY********************

CARTESIAN COORDINATES (ANGSTROEM)
---------------------------------
  N     -1.652571   -0.004577    0.020053
  C     -3.106947   -0.046523   -0.006036
  C     -1.008951    1.174317   -0.011149
  C      0.412881    1.276538   -0.062661
  O      0.968108    2.376648   -0.084170
  C      1.166252   -0.012117   -0.088295
  C      2.511761    0.022899   -0.136953
  C      0.393417   -1.241482   -0.057433
  C      1.098964   -2.562488   -0.075357
  C     -0.955321   -1.193397   -0.007732
  H     -3.467447   -0.213162   -1.022486
  H     -3.458690   -0.851977    0.635985
  H     -3.498179    0.897615    0.363643
  H     -1.605069    2.075217    0.004878
  H      3.110615   -0.877208   -0.153771
  H      3.014215    0.980043   -0.158339
  H      1.766352   -2.654803    0.784424
  H      0.390957   -3.389536   -0.051524
  H      1.712926   -2.658880   -0.973475
  H     -1.567371   -2.084328    0.014099

 Multiplicity           Mult            ....    2
 Number of Electrons    NEL             ....   73
 Basis Dimension        Dim             ....  370

ORBITAL ENERGIES
----------------
                 SPIN UP ORBITALS
  NO   OCC          E(Eh)            E(eV)
   0   1.0000     -19.577436      -532.7291
   1   1.0000     -14.834254      -403.6606
   2   1.0000     -10.601984      -288.4947
   3   1.0000     -10.598082      -288.3885
   4   1.0000     -10.585267      -288.0397
   5   1.0000     -10.583840      -288.0009
   6   1.0000     -10.559969      -287.3514
   7   1.0000     -10.543556      -286.9047
   8   1.0000     -10.540396      -286.8188
   9   1.0000     -10.528432      -286.4932
  10   1.0000      -1.136013       -30.9125
  11   1.0000      -1.117254       -30.4020
  12   1.0000      -0.940117       -25.5819
  13   1.0000      -0.872772       -23.7493
  14   1.0000      -0.854389       -23.2491
  15   1.0000      -0.817334       -22.2408
  16   1.0000      -0.761938       -20.7334
  17   1.0000      -0.689614       -18.7654
  18   1.0000      -0.677860       -18.4455
  19   1.0000      -0.605765       -16.4837
  20   1.0000      -0.604335       -16.4448
  21   1.0000      -0.574103       -15.6221
  22   1.0000      -0.543631       -14.7930
  23   1.0000      -0.512286       -13.9400
  24   1.0000      -0.506189       -13.7741
  25   1.0000      -0.503669       -13.7055
  26   1.0000      -0.495323       -13.4784
  27   1.0000      -0.478668       -13.0252
  28   1.0000      -0.476253       -12.9595
  29   1.0000      -0.469480       -12.7752
  30   1.0000      -0.438475       -11.9315
  31   1.0000      -0.432935       -11.7808
  32   1.0000      -0.417185       -11.3522
  33   1.0000      -0.364500        -9.9185
  34   1.0000      -0.311648        -8.4804
  35   1.0000      -0.296377        -8.0648
  36   1.0000      -0.216678        -5.8961
  37   0.0000       0.010562         0.2874
  38   0.0000       0.039578         1.0770
  39   0.0000       0.054863         1.4929
  40   0.0000       0.077248         2.1020
  41   0.0000       0.093720         2.5503

                 SPIN DOWN ORBITALS
  NO   OCC          E(Eh)            E(eV)
   0   1.0000     -19.572995      -532.6083
   1   1.0000     -14.831513      -403.5860
   2   1.0000     -10.602127      -288.4985
   3   1.0000     -10.598342      -288.3956
   4   1.0000     -10.586129      -288.0632
   5   1.0000     -10.581505      -287.9374
   6   1.0000     -10.558909      -287.3225
   7   1.0000     -10.544448      -286.9290
   8   1.0000     -10.540510      -286.8219
   9   1.0000     -10.526728      -286.4468
  10   1.0000      -1.125785       -30.6342
  11   1.0000      -1.106948       -30.1216
  12   1.0000      -0.937596       -25.5133
  13   1.0000      -0.865606       -23.5543
  14   1.0000      -0.851678       -23.1753
  15   1.0000      -0.813819       -22.1451
  16   1.0000      -0.755830       -20.5672
  17   1.0000      -0.685019       -18.6403
  18   1.0000      -0.672759       -18.3067
  19   1.0000      -0.602513       -16.3952
  20   1.0000      -0.600394       -16.3376
  21   1.0000      -0.562194       -15.2981
  22   1.0000      -0.539408       -14.6780
  23   1.0000      -0.510009       -13.8781
  24   1.0000      -0.503547       -13.7022
  25   1.0000      -0.498864       -13.5748
  26   1.0000      -0.489417       -13.3177
  27   1.0000      -0.475620       -12.9423
  28   1.0000      -0.466069       -12.6824
  29   1.0000      -0.460580       -12.5330
  30   1.0000      -0.436086       -11.8665
  31   1.0000      -0.413957       -11.2643
  32   1.0000      -0.408370       -11.1123
  33   1.0000      -0.350832        -9.5466
  34   1.0000      -0.303883        -8.2691
  35   1.0000      -0.269151        -7.3240
  36   0.0000      -0.067658        -1.8411
  37   0.0000       0.033269         0.9053
  38   0.0000       0.053397         1.4530
  39   0.0000       0.057169         1.5556
  40   0.0000       0.075018         2.0413

MULLIKEN ATOMIC CHARGES AND SPIN POPULATIONS
--------------------------------------------
   0 N :   -0.033231    0.169556
   1 C :   -0.323918   -0.013472
   2 C :   -0.106631    0.352283
   3 C :    0.143634    0.028448
   4 O :   -0.392595    0.233426
   5 C :    0.061932   -0.124113
   6 C :   -0.359454    0.297381
   7 C :    0.011336    0.183295
   8 C :   -0.531343   -0.001745
   9 C :   -0.052523   -0.118612
  10 H :    0.172423    0.013264
  11 H :    0.156673    0.002793
  12 H :    0.156530    0.003510
  13 H :    0.166387   -0.014889
  14 H :    0.142688   -0.014534
  15 H :    0.163687   -0.011812
  16 H :    0.169786    0.005739
  17 H :    0.130588    0.000283
  18 H :    0.169593    0.005532
  19 H :    0.154438    0.003667
Sum of atomic charges         :    0.0000000

LOEWDIN ATOMIC CHARGES AND SPIN POPULATIONS
-------------------------------------------
   0 N :    0.224007    0.140337
   1 C :   -0.251855    0.010610
   2 C :   -0.138060    0.290130
   3 C :   -0.354223    0.070747
   4 O :    0.064188    0.199422
   5 C :   -0.153240   -0.018123
   6 C :   -0.135100    0.236208
   7 C :   -0.157370    0.085235
   8 C :   -0.253847    0.006562
   9 C :   -0.173722   -0.036495
  10 H :    0.125417    0.006457
  11 H :    0.125560    0.001298
  12 H :    0.128170    0.001514
  13 H :    0.148134   -0.000429
  14 H :    0.123010   -0.000244
  15 H :    0.136126   -0.000412
  16 H :    0.133845    0.003894
  17 H :    0.127311   -0.000075
  18 H :    0.133773    0.003751
  19 H :    0.147876   -0.000386

  Mayer bond orders larger than 0.100000
B(  0-N ,  1-C ) :   0.9236 B(  0-N ,  2-C ) :   1.2792 B(  0-N ,  9-C ) :   1.1053
B(  1-C , 10-H ) :   0.9555 B(  1-C , 11-H ) :   0.9624 B(  1-C , 12-H ) :   0.9651
B(  2-C ,  3-C ) :   1.3950 B(  2-C , 13-H ) :   0.8937 B(  3-C ,  4-O ) :   1.8869
B(  3-C ,  5-C ) :   0.9716 B(  5-C ,  6-C ) :   1.6196 B(  5-C ,  7-C ) :   1.0479
B(  6-C , 14-H ) :   0.9820 B(  6-C , 15-H ) :   0.9542 B(  7-C ,  8-C ) :   0.8964
B(  7-C ,  9-C ) :   1.7271 B(  8-C , 16-H ) :   0.9727 B(  8-C , 17-H ) :   0.9788
B(  8-C , 18-H ) :   0.9743 B(  9-C , 19-H ) :   0.8998

FINAL SINGLE POINT ENERGY      -440.767571805130

DIPOLE MOMENT
-------------
                                X             Y             Z
Electronic contribution:      1.23050       6.39458       0.08374
Nuclear contribution   :     -3.01898      -8.06789      -0.04143
                        -----------------------------------------
Total Dipole Moment    :     -1.78848      -1.67331       0.04232
                        -----------------------------------------
Magnitude (a.u.)       :      2.44958
Magnitude (Debye)      :      6.22633

VIBRATIONAL FREQUENCIES
-----------------------

Scaling factor for frequencies =  1.000000000  (already applied!)

   0:         0.00 cm**-1
   1:         0.00 cm**-1
   2:         0.00 cm**-1
   3:         0.00 cm**-1
   4:         0.00 cm**-1
   5:         0.00 cm**-1
   6:        83.49 cm**-1
   7:       114.56 cm**-1
   8:       161.56 cm**-1
   9:       207.51 cm**-1
  10:       237.02 cm**-1
  11:       298.07 cm**-1
  12:       309.66 cm**-1
  13:       344.70 cm**-1
  14:       358.62 cm**-1
  15:       437.49 cm**-1
  16:       486.80 cm**-1
  17:       531.20 cm**-1
  18:       534.94 cm**-1
  19:       584.52 cm**-1
  20:       604.51 cm**-1
  21:       710.42 cm**-1
  22:       744.05 cm**-1
  23:       807.73 cm**-1
  24:       833.70 cm**-1
  25:       856.75 cm**-1
  26:       906.55 cm**-1
  27:       926.97 cm**-1
  28:      1015.78 cm**-1
  29:      1035.28 cm**-1
  30:      1058.29 cm**-1
  31:      1122.18 cm**-1
  32:      1146.94 cm**-1
  33:      1162.89 cm**-1
  34:      1218.77 cm**-1
  35:      1266.85 cm**-1
  36:      1348.29 cm**-1
  37:      1394.76 cm**-1
  38:      1412.63 cm**-1
  39:      1425.45 cm**-1
  40:      1456.36 cm**-1
  41:      1465.61 cm**-1
  42:      1476.42 cm**-1
  43:      1493.42 cm**-1
  44:      1499.91 cm**-1
  45:      1517.75 cm**-1
  46:      1565.16 cm**-1
  47:      1599.64 cm**-1
  48:      1660.26 cm**-1
  49:      1671.77 cm**-1
  50:      3062.50 cm**-1
  51:      3077.00 cm**-1
  52:      3124.08 cm**-1
  53:      3155.56 cm**-1
  54:      3159.83 cm**-1
  55:      3190.35 cm**-1
  56:      3192.98 cm**-1
  57:      3239.03 cm**-1
  58:      3252.99 cm**-1
  59:      3289.04 cm**-1

IR SPECTRUM
-----------

 Mode   freq       eps      Int      T**2         TX        TY        TZ
       cm**-1   L/(mol*cm) km/mol    a.u.
----------------------------------------------------------------------------
  6:     83.49   0.000588    2.97  0.002198  (-0.000114 -0.000019 -0.046880)
  7:    114.56   0.000051    0.26  0.000138  ( 0.010285  0.002247  0.005188)
  8:    161.56   0.000173    0.87  0.000334  ( 0.006587  0.000674 -0.017021)
  9:    207.51   0.000204    1.03  0.000306  ( 0.001094  0.000750  0.017446)
 10:    237.02   0.000293    1.48  0.000385  (-0.001450  0.000706  0.019563)
 11:    298.07   0.000117    0.59  0.000122  ( 0.000524 -0.010621  0.003011)
 12:    309.66   0.000294    1.49  0.000297  ( 0.007434  0.002743  0.015294)
 13:    344.70   0.000155    0.78  0.000140  (-0.011797 -0.000867 -0.000078)
 14:    358.62   0.000280    1.42  0.000244  (-0.010070  0.011936  0.000351)
 15:    437.49   0.001600    8.09  0.001141  ( 0.020201 -0.027052 -0.001174)
 16:    486.80   0.000300    1.51  0.000192  ( 0.004732  0.002920 -0.012696)
 17:    531.20   0.000873    4.41  0.000513  (-0.005237 -0.002837  0.021855)
 18:    534.94   0.000616    3.11  0.000359  ( 0.006115  0.017928  0.000824)
 19:    584.52   0.000117    0.59  0.000063  (-0.006567  0.003941 -0.001968)
 20:    604.51   0.000579    2.93  0.000299  ( 0.004562 -0.016596 -0.001696)
 21:    710.42   0.000010    0.05  0.000005  ( 0.001740  0.000404  0.001149)
 22:    744.05   0.000064    0.32  0.000027  (-0.000851  0.000250 -0.005097)
 23:    807.73   0.001231    6.22  0.000475  (-0.013598 -0.017042 -0.000383)
 24:    833.70   0.005768   29.15  0.002159  (-0.004445 -0.000318 -0.046251)
 25:    856.75   0.003581   18.10  0.001304  ( 0.004453  0.000718  0.035834)
 26:    906.55   0.000112    0.56  0.000038  ( 0.001167 -0.005951  0.001277)
 27:    926.97   0.007611   38.46  0.002562  (-0.001371 -0.000286 -0.050599)
 28:   1015.78   0.000334    1.69  0.000103  (-0.008475 -0.005539  0.000466)
 29:   1035.28   0.001163    5.88  0.000351  (-0.018553 -0.001911  0.001673)
 30:   1058.29   0.000173    0.87  0.000051  (-0.000150 -0.001126  0.007044)
 31:   1122.18   0.001603    8.10  0.000446  (-0.016293 -0.013419  0.000432)
 32:   1146.94   0.004237   21.41  0.001153  ( 0.033479  0.005660 -0.000035)
 33:   1162.89   0.002153   10.88  0.000578  ( 0.023429  0.005282 -0.000982)
 34:   1218.77   0.019657   99.34  0.005033  (-0.070893 -0.002669  0.000600)
 35:   1266.85   0.000569    2.88  0.000140  ( 0.006978  0.009558 -0.000401)
 36:   1348.29   0.001900    9.60  0.000440  ( 0.020665  0.003470  0.000802)
 37:   1394.76   0.001793    9.06  0.000401  (-0.019401  0.004966  0.000246)
 38:   1412.63   0.000039    0.20  0.000009  ( 0.001827 -0.002234  0.000452)
 39:   1425.45   0.003634   18.36  0.000795  ( 0.025034 -0.012973 -0.000705)
 40:   1456.36   0.000478    2.42  0.000102  ( 0.008882  0.004761  0.000961)
 41:   1465.61   0.002394   12.10  0.000510  (-0.019710 -0.011009 -0.000112)
 42:   1476.42   0.001829    9.24  0.000387  ( 0.000867  0.000358  0.019641)
 43:   1493.42   0.001976    9.99  0.000413  ( 0.004405  0.001924 -0.019745)
 44:   1499.91   0.003674   18.57  0.000764  (-0.023552 -0.014146  0.003082)
 45:   1517.75   0.003449   17.43  0.000709  ( 0.012117 -0.023609 -0.002222)
 46:   1565.16   0.034259  173.13  0.006831  ( 0.061305  0.055400 -0.001806)
 47:   1599.64   0.012574   63.54  0.002453  ( 0.030204  0.039247 -0.000576)
 48:   1660.26   0.002335   11.80  0.000439  ( 0.002071 -0.020845  0.000077)
 49:   1671.77   0.028091  141.96  0.005244  ( 0.034384  0.063725 -0.000765)
 50:   3062.50   0.004384   22.16  0.000447  ( 0.010691 -0.018233  0.000036)
 51:   3077.00   0.008508   43.00  0.000863  (-0.028859 -0.003311 -0.004366)
 52:   3124.08   0.001382    6.98  0.000138  (-0.000472 -0.000221 -0.011736)
 53:   3155.56   0.001305    6.59  0.000129  (-0.002919 -0.001319  0.010897)
 54:   3159.83   0.001968    9.94  0.000194  ( 0.008966  0.010661 -0.000516)
 55:   3190.35   0.000459    2.32  0.000045  ( 0.000970 -0.006606 -0.000554)
 56:   3192.98   0.000769    3.89  0.000075  (-0.002557 -0.008284  0.000034)
 57:   3239.03   0.000478    2.42  0.000046  ( 0.000171  0.006784 -0.000114)
 58:   3252.99   0.000594    3.00  0.000057  ( 0.007535  0.000424 -0.000016)
 59:   3289.04   0.000159    0.81  0.000015  (-0.003660  0.001311  0.000105)

--------------------------
THERMOCHEMISTRY AT 298.15K
--------------------------

Temperature         ... 298.15 K
Pressure            ... 1.00 atm
Total Mass          ... 136.17 AMU

Throughout the following assumptions are being made:
  (1) The electronic state is orbitally nondegenerate
      but the spin degeneracy is treated
  (2) There are no thermally accessible electronically excited states
  (3) Hindered rotations indicated by low frequency modes are not
      treated as such but are treated as vibrations and this may
      cause some error
  (4) All equations used are the standard statistical mechanics
      equations for an ideal gas
  (5) All vibrations are strictly harmonic

freq.      83.49  E(vib)   ...       0.48
freq.     114.56  E(vib)   ...       0.44
freq.     161.56  E(vib)   ...       0.39
freq.     207.51  E(vib)   ...       0.34
freq.     237.02  E(vib)   ...       0.32
freq.     298.07  E(vib)   ...       0.27
freq.     309.66  E(vib)   ...       0.26
freq.     344.70  E(vib)   ...       0.23
freq.     358.62  E(vib)   ...       0.22
freq.     437.49  E(vib)   ...       0.17
freq.     486.80  E(vib)   ...       0.15
freq.     531.20  E(vib)   ...       0.13
freq.     534.94  E(vib)   ...       0.13
freq.     584.52  E(vib)   ...       0.11
freq.     604.51  E(vib)   ...       0.10
freq.     710.42  E(vib)   ...       0.07
freq.     744.05  E(vib)   ...       0.06
freq.     807.73  E(vib)   ...       0.05
freq.     833.70  E(vib)   ...       0.04
freq.     856.75  E(vib)   ...       0.04
freq.     906.55  E(vib)   ...       0.03
freq.     926.97  E(vib)   ...       0.03
freq.    1015.78  E(vib)   ...       0.02
freq.    1035.28  E(vib)   ...       0.02
freq.    1058.29  E(vib)   ...       0.02
freq.    1122.18  E(vib)   ...       0.01
freq.    1146.94  E(vib)   ...       0.01
freq.    1162.89  E(vib)   ...       0.01
freq.    1218.77  E(vib)   ...       0.01
freq.    1266.85  E(vib)   ...       0.01
freq.    1348.29  E(vib)   ...       0.01
freq.    1394.76  E(vib)   ...       0.00
freq.    1412.63  E(vib)   ...       0.00
freq.    1425.45  E(vib)   ...       0.00
freq.    1456.36  E(vib)   ...       0.00
freq.    1465.61  E(vib)   ...       0.00
freq.    1476.42  E(vib)   ...       0.00
freq.    1493.42  E(vib)   ...       0.00
freq.    1499.91  E(vib)   ...       0.00
freq.    1517.75  E(vib)   ...       0.00
freq.    1565.16  E(vib)   ...       0.00
freq.    1599.64  E(vib)   ...       0.00
freq.    1660.26  E(vib)   ...       0.00
freq.    1671.77  E(vib)   ...       0.00
freq.    3062.50  E(vib)   ...       0.00
freq.    3077.00  E(vib)   ...       0.00
freq.    3124.08  E(vib)   ...       0.00
freq.    3155.56  E(vib)   ...       0.00
freq.    3159.83  E(vib)   ...       0.00
freq.    3190.35  E(vib)   ...       0.00
freq.    3192.98  E(vib)   ...       0.00
freq.    3239.03  E(vib)   ...       0.00
freq.    3252.99  E(vib)   ...       0.00
freq.    3289.04  E(vib)   ...       0.00

------------
INNER ENERGY
------------

The inner energy is: U= E(el) + E(ZPE) + E(vib) + E(rot) + E(trans)
    E(el)   - is the total energy from the electronic structure calculation
              = E(kin-el) + E(nuc-el) + E(el-el) + E(nuc-nuc)
    E(ZPE)  - the the zero temperature vibrational energy from the frequency calculation
    E(vib)  - the the finite temperature correction to E(ZPE) due to population
              of excited vibrational states
    E(rot)  - is the rotational thermal energy
    E(trans)- is the translational thermal energy

Summary of contributions to the inner energy U:
Electronic energy                ...   -440.76757181 Eh
Zero point energy                ...      0.16593853 Eh     104.13 kcal/mol
Thermal vibrational correction   ...      0.00671446 Eh       4.21 kcal/mol
Thermal rotational correction    ...      0.00141627 Eh       0.89 kcal/mol
Thermal translational correction ...      0.00141627 Eh       0.89 kcal/mol
-----------------------------------------------------------------------
Total thermal energy                   -440.59208627 Eh

Summary of corrections to the electronic energy:
(perhaps to be used in another calculation)
Total thermal correction                  0.00954700 Eh       5.99 kcal/mol
Non-thermal (ZPE) correction              0.16593853 Eh     104.13 kcal/mol
-----------------------------------------------------------------------
Total correction                          0.17548553 Eh     110.12 kcal/mol

--------
ENTHALPY
--------

The enthalpy is H = U + kB*T
                kB is Boltzmann's constant
Total free energy                 ...   -440.59208627 Eh
Thermal Enthalpy correction       ...      0.00094421 Eh       0.59 kcal/mol
-----------------------------------------------------------------------
Total Enthalpy                    ...   -440.59114206 Eh

Note: Only C1 symmetry has been detected, increase convergence thresholds
      if your molecule has a higher symmetry. Symmetry factor of 1.0 is
      used for the rotational entropy correction.

Note: Rotational entropy computed according to Herzberg
Infrared and Raman Spectra, Chapter V,1, Van Nostrand Reinhold, 1945
Point Group:  C1, Symmetry Number:   1
Rotational constants in cm-1:     0.059817     0.045174     0.025991

Vibrational entropy computed according to the QRRHO of S. Grimme
Chem.Eur.J. 2012 18 9955

-------
ENTROPY
-------

The entropy contributions are T*S = T*(S(el)+S(vib)+S(rot)+S(trans))
     S(el)   - electronic entropy
     S(vib)  - vibrational entropy
     S(rot)  - rotational entropy
     S(trans)- translational entropy
The entropies will be listed as multiplied by the temperature to get
units of energy

Electronic entropy                ...      0.00065446 Eh      0.41 kcal/mol
Vibrational entropy               ...      0.01114742 Eh      7.00 kcal/mol
Rotational entropy                ...      0.01402574 Eh      8.80 kcal/mol
Translational entropy             ...      0.01930853 Eh     12.12 kcal/mol
-----------------------------------------------------------------------
Final entropy term                ...      0.04513615 Eh     28.32 kcal/mol

In case the symmetry of your molecule has not been determined correctly
or in case you have a reason to use a different symmetry number we print
out the resulting rotational entropy values for sn=1,12 :
 --------------------------------------------------------
|  sn= 1 | S(rot)=       0.01402574 Eh      8.80 kcal/mol|
|  sn= 2 | S(rot)=       0.01337128 Eh      8.39 kcal/mol|
|  sn= 3 | S(rot)=       0.01298845 Eh      8.15 kcal/mol|
|  sn= 4 | S(rot)=       0.01271683 Eh      7.98 kcal/mol|
|  sn= 5 | S(rot)=       0.01250614 Eh      7.85 kcal/mol|
|  sn= 6 | S(rot)=       0.01233399 Eh      7.74 kcal/mol|
|  sn= 7 | S(rot)=       0.01218845 Eh      7.65 kcal/mol|
|  sn= 8 | S(rot)=       0.01206237 Eh      7.57 kcal/mol|

                             ****ORCA TERMINATED NORMALLY****
TOTAL RUN TIME: 0 days 0 hours 27 minutes 25 seconds 542 msec
