                         Program Version 5.0.4 -  RELEASE  -
|  1> ! B3LYP EPR-II AUTOAUX
|  2> %pal nprocs 16 end
|  3> *XYZFile 0 2 model_opt.xyz
|  4> %EPRNMR
|  5>         GTENSOR   TRUE
|  6>         NUCLEI    =         11, 12, 13, 14, 15, 16, 20 {SHIFT, AISO, ADIP, AORB}
|  7>         NUCLEI    =         5 {SHIFT, AISO, ADIP, AORB}
|  8>         NUCLEI    =         1 {SHIFT, AISO, ADIP, AORB}
|  9>         ORI       GIAO
| 10> END
| 11>
| 12>                          ****END OF INPUT****

CARTESIAN COORDINATES (ANGSTROEM)
---------------------------------
  N     -1.666140   -0.007042    0.020530
  C     -3.131657   -0.042569   -0.007824
  C     -1.017495    1.186801   -0.018070
  C      0.418297    1.290657   -0.073509
  O      0.979608    2.405195   -0.101804
  C      1.176129   -0.007431   -0.093345
  C      2.546741    0.036228   -0.143161
  C      0.406676   -1.244822   -0.054368
  C      1.106605   -2.585764   -0.063907
  C     -0.964768   -1.201058   -0.002189
  H     -3.498614   -0.115577   -1.037459
  H     -3.488817   -0.903379    0.561411
  H     -3.525113    0.867285    0.448161
  H     -1.620004    2.087499   -0.003336
  H      3.155004   -0.860817   -0.157744
  H      3.042118    1.000167   -0.168318
  H      1.775898   -2.685307    0.798301
  H      0.387146   -3.408548   -0.032874
  H      1.718910   -2.702115   -0.965397
  H     -1.574623   -2.096601    0.028601

 Total Charge           Charge          ....    0
 Multiplicity           Mult            ....    2
 Number of Electrons    NEL             ....   73
 Basis Dimension        Dim             ....  240

ORBITAL ENERGIES
----------------
                 SPIN UP ORBITALS
  NO   OCC          E(Eh)            E(eV)
   0   1.0000     -19.091992      -519.5195
   1   1.0000     -14.418554      -392.3488
   2   1.0000     -10.251612      -278.9606
   3   1.0000     -10.248181      -278.8672
   4   1.0000     -10.234823      -278.5037
   5   1.0000     -10.231954      -278.4256
   6   1.0000     -10.217314      -278.0272
   7   1.0000     -10.200792      -277.5777
   8   1.0000     -10.190019      -277.2845
   9   1.0000     -10.181223      -277.0452
  10   1.0000      -1.006335       -27.3838
  11   1.0000      -0.988162       -26.8892
  12   1.0000      -0.829495       -22.5717
  13   1.0000      -0.768079       -20.9005
  14   1.0000      -0.752266       -20.4702
  15   1.0000      -0.718966       -19.5641
  16   1.0000      -0.668825       -18.1996
  17   1.0000      -0.601609       -16.3706
  18   1.0000      -0.591823       -16.1043
  19   1.0000      -0.525288       -14.2938
  20   1.0000      -0.519797       -14.1444
  21   1.0000      -0.490582       -13.3494
  22   1.0000      -0.469675       -12.7805
  23   1.0000      -0.441404       -12.0112
  24   1.0000      -0.434064       -11.8115
  25   1.0000      -0.427847       -11.6423
  26   1.0000      -0.416608       -11.3365
  27   1.0000      -0.403720       -10.9858
  28   1.0000      -0.397566       -10.8183
  29   1.0000      -0.397403       -10.8139
  30   1.0000      -0.371742       -10.1156
  31   1.0000      -0.352669        -9.5966
  32   1.0000      -0.351743        -9.5714
  33   1.0000      -0.297339        -8.0910
  34   1.0000      -0.235127        -6.3981
  35   1.0000      -0.230424        -6.2702
  36   1.0000      -0.171100        -4.6559
  37   0.0000      -0.021695        -0.5903
  38   0.0000      -0.003326        -0.0905
  39   0.0000       0.005524         0.1503
  40   0.0000       0.019739         0.5371
  41   0.0000       0.045030         1.2253

                 SPIN DOWN ORBITALS
  NO   OCC          E(Eh)            E(eV)
   0   1.0000     -19.086766      -519.3773
   1   1.0000     -14.414882      -392.2489
   2   1.0000     -10.251673      -278.9622
   3   1.0000     -10.248380      -278.8726
   4   1.0000     -10.236569      -278.5512
   5   1.0000     -10.227017      -278.2913
   6   1.0000     -10.214636      -277.9544
   7   1.0000     -10.202819      -277.6328
   8   1.0000     -10.190199      -277.2894
   9   1.0000     -10.176047      -276.9043
  10   1.0000      -0.998775       -27.1781
  11   1.0000      -0.979401       -26.6509
  12   1.0000      -0.826667       -22.4948
  13   1.0000      -0.761530       -20.7223
  14   1.0000      -0.749738       -20.4014
  15   1.0000      -0.715468       -19.4689
  16   1.0000      -0.662248       -18.0207
  17   1.0000      -0.597264       -16.2524
  18   1.0000      -0.586012       -15.9462
  19   1.0000      -0.522905       -14.2290
  20   1.0000      -0.518019       -14.0960
  21   1.0000      -0.482657       -13.1338
  22   1.0000      -0.466417       -12.6918
  23   1.0000      -0.440405       -11.9840
  24   1.0000      -0.432299       -11.7635
  25   1.0000      -0.424404       -11.5486
  26   1.0000      -0.413646       -11.2559
  27   1.0000      -0.402103       -10.9418
  28   1.0000      -0.393596       -10.7103
  29   1.0000      -0.385359       -10.4861
  30   1.0000      -0.369773       -10.0620
  31   1.0000      -0.349262        -9.5039
  32   1.0000      -0.336330        -9.1520
  33   1.0000      -0.283206        -7.7064
  34   1.0000      -0.225031        -6.1234
  35   1.0000      -0.212338        -5.7780
  36   0.0000      -0.094072        -2.5598
  37   0.0000      -0.003339        -0.0909
  38   0.0000      -0.001153        -0.0314
  39   0.0000       0.020020         0.5448
  40   0.0000       0.021892         0.5957

MULLIKEN ATOMIC CHARGES AND SPIN POPULATIONS
--------------------------------------------
   0 N :    0.324157    0.133363
   1 C :   -0.445627   -0.011085
   2 C :   -0.304902    0.369708
   3 C :    0.091113    0.006681
   4 O :   -0.352564    0.194360
   5 C :    0.291322   -0.126872
   6 C :   -0.548428    0.406072
   7 C :    0.348990    0.176491
   8 C :   -0.608221   -0.012955
   9 C :   -0.380319   -0.120454
  10 H :    0.184506    0.010985
  11 H :    0.161315    0.000789
  12 H :    0.165698    0.004210
  13 H :    0.136371   -0.017993
  14 H :    0.147575   -0.015698
  15 H :    0.184208   -0.016639
  16 H :    0.171412    0.006786
  17 H :    0.144306    0.000296
  18 H :    0.171041    0.006506
  19 H :    0.118047    0.005448
Sum of atomic charges         :   -0.0000000

LOEWDIN ATOMIC CHARGES AND SPIN POPULATIONS
-------------------------------------------
   0 N :    0.090709    0.136925
   1 C :    0.031212    0.000552
   2 C :   -0.028229    0.301341
   3 C :   -0.092271    0.032833
   4 O :   -0.185579    0.186867
   5 C :   -0.086372   -0.075865
   6 C :   -0.015341    0.332166
   7 C :   -0.073640    0.134802
   8 C :   -0.036317   -0.000992
   9 C :   -0.063500   -0.075334
  10 H :    0.042306    0.007109
  11 H :    0.041263    0.000716
  12 H :    0.044244    0.002642
  13 H :    0.058023    0.002487
  14 H :    0.036438    0.002474
  15 H :    0.052469    0.002152
  16 H :    0.046251    0.005164
  17 H :    0.039102    0.000011
  18 H :    0.046163    0.005045
  19 H :    0.053068   -0.001096

  Mayer bond orders larger than 0.100000
B(  0-N ,  1-C ) :   0.9491 B(  0-N ,  2-C ) :   1.3243 B(  0-N ,  9-C ) :   1.1915
B(  1-C , 10-H ) :   0.9450 B(  1-C , 11-H ) :   0.9612 B(  1-C , 12-H ) :   0.9608
B(  2-C ,  3-C ) :   1.2103 B(  2-C ,  4-O ) :   0.1076 B(  2-C ,  9-C ) :   0.1017
B(  2-C , 13-H ) :   0.9642 B(  3-C ,  4-O ) :   1.7581 B(  3-C ,  5-C ) :   0.9914
B(  5-C ,  6-C ) :   1.4436 B(  5-C ,  7-C ) :   1.2583 B(  5-C ,  9-C ) :   0.1269
B(  6-C , 14-H ) :   0.9589 B(  6-C , 15-H ) :   0.9573 B(  7-C ,  8-C ) :   0.8658
B(  7-C ,  9-C ) :   1.5703 B(  8-C , 16-H ) :   0.9578 B(  8-C , 17-H ) :   0.9869
B(  8-C , 18-H ) :   0.9580 B(  9-C , 19-H ) :   0.9565

FINAL SINGLE POINT ENERGY      -440.606351761069

DIPOLE MOMENT
-------------
                                X             Y             Z
Electronic contribution:      1.30305       6.41503       0.03979
Nuclear contribution   :     -3.06502      -8.14356       0.01050
                        -----------------------------------------
Total Dipole Moment    :     -1.76197      -1.72852       0.05028
                        -----------------------------------------
Magnitude (a.u.)       :      2.46877
Magnitude (Debye)      :      6.27513

Rotational constants in cm-1:     0.058672     0.044313     0.025492
Rotational constants in MHz :  1758.932226  1328.458493   764.225480

CHEMICAL SHIELDING SUMMARY (ppm)  --  Orbital contribution
----------------------------------------------------------

  Nucleus  Element    Isotropic     Anisotropy
  -------  -------  ------------   ------------
     10       H           28.410          8.010
     11       H           28.948          6.955
     12       H           28.941          7.130
     13       H           25.922          7.306
     14       H           26.874          6.245
     15       H           25.831          4.604
     19       H           26.144          7.913
      4       O         -182.056       -776.437
      0       N           93.592        156.106

                             ****ORCA TERMINATED NORMALLY****
TOTAL RUN TIME: 0 days 0 hours 6 minutes 31 seconds 937 msec
