                         Program Version 5.0.4 -  RELEASE  -
|  1> ! M062X def2-TZVP OPT FREQ
|  2> %pal nprocs 16 end
|  3> *XYZFile -1 2 opt.xyz
|  4>
|  5>                          ****END OF INPUT****
 Total Charge           Charge          ....   -1
 Multiplicity           Mult            ....    2
 Number of Electrons    NEL             ....  133
FINAL SINGLE POINT ENERGY      -876.174313416147
FINAL SINGLE POINT ENERGY      -876.178620648829
FINAL SINGLE POINT ENERGY      -876.178419859773
FINAL SINGLE POINT ENERGY      -876.179143172075
FINAL SINGLE POINT ENERGY      -876.179258981499
FINAL SINGLE POINT ENERGY      -876.179374281960
FINAL SINGLE POINT ENERGY      -876.179410472061
FINAL SINGLE POINT ENERGY      -876.179428067839
FINAL SINGLE POINT ENERGY      -876.179417355734
FINAL SINGLE POINT ENERGY      -876.179423937194
FINAL SINGLE POINT ENERGY      -876.179435391376
FINAL SINGLE POINT ENERGY      -876.179436984641
                    ***********************HURRAY********************

CARTESIAN COORDINATES (ANGSTROEM)
---------------------------------
  N      0.927308   -0.768459   -3.813108
  C      1.965058    0.077333   -3.269788
  C      3.302165   -0.540214   -3.675384
  O      3.368006   -1.709129   -4.032484
  C      1.857117    0.186969   -1.727993
  C      2.879028    1.120177   -1.140353
  C      3.955461    0.647717   -0.433106
  C      5.039164    1.485336    0.026128
  C      4.932690    2.958318   -0.281390
  C      3.779178    3.374176   -1.045855
  C      2.797668    2.506112   -1.446833
  H      1.229575   -1.688721   -4.097605
  H      1.865458    1.077727   -3.696057
  H      1.968001   -0.816321   -1.309749
  H      0.840601    0.532885   -1.524763
  H      4.049493   -0.413189   -0.217544
  O      6.018909    1.020276    0.627546
  O      5.792626    3.764813    0.102422
  H      3.715051    4.433434   -1.269588
  H      1.938240    2.869269   -2.003588
  C     -0.347889   -0.359141   -3.952711
  N      4.364768    0.279546   -3.589625
  H      4.218115    1.156248   -3.104720
  O     -0.728234    0.758194   -3.648146
  C      5.717583   -0.240613   -3.598247
  H      5.730508   -1.154432   -4.186701
  H      6.389422    0.491735   -4.042310
  H      6.052362   -0.455952   -2.580497
  C     -1.311129   -1.383467   -4.516575
  H     -2.070725   -1.585842   -3.761763
  H     -1.809656   -0.945603   -5.379981
  H     -0.829336   -2.316234   -4.804535

 Multiplicity           Mult            ....    2
 Number of Electrons    NEL             ....  133
 Basis Dimension        Dim             ....  642

ORBITAL ENERGIES
----------------
                 SPIN UP ORBITALS
  NO   OCC          E(Eh)            E(eV)
   0   1.0000     -19.506360      -530.7951
   1   1.0000     -19.501410      -530.6603
   2   1.0000     -19.437416      -528.9190
   3   1.0000     -19.436778      -528.9016
   4   1.0000     -14.681627      -399.5074
   5   1.0000     -14.675040      -399.3281
   6   1.0000     -10.556497      -287.2569
   7   1.0000     -10.550499      -287.0937
   8   1.0000     -10.491796      -285.4963
   9   1.0000     -10.469622      -284.8929
  10   1.0000     -10.465343      -284.7765
  11   1.0000     -10.445496      -284.2364
  12   1.0000     -10.444520      -284.2098
  13   1.0000     -10.438414      -284.0437
  14   1.0000     -10.418314      -283.4967
  15   1.0000     -10.409130      -283.2468
  16   1.0000     -10.397262      -282.9239
  17   1.0000     -10.393765      -282.8287
  18   1.0000      -1.079756       -29.3817
  19   1.0000      -1.071331       -29.1524
  20   1.0000      -0.995328       -27.0843
  21   1.0000      -0.967418       -26.3248
  22   1.0000      -0.948705       -25.8156
  23   1.0000      -0.941095       -25.6085
  24   1.0000      -0.823825       -22.4174
  25   1.0000      -0.783696       -21.3255
  26   1.0000      -0.745237       -20.2789
  27   1.0000      -0.714769       -19.4499
  28   1.0000      -0.689745       -18.7689
  29   1.0000      -0.662730       -18.0338
  30   1.0000      -0.617199       -16.7948
  31   1.0000      -0.582406       -15.8481
  32   1.0000      -0.566761       -15.4224
  33   1.0000      -0.541126       -14.7248
  34   1.0000      -0.527972       -14.3669
  35   1.0000      -0.505151       -13.7458
  36   1.0000      -0.476420       -12.9640
  37   1.0000      -0.465824       -12.6757
  38   1.0000      -0.450844       -12.2681
  39   1.0000      -0.440320       -11.9817
  40   1.0000      -0.436549       -11.8791
  41   1.0000      -0.424497       -11.5511
  42   1.0000      -0.420235       -11.4352
  43   1.0000      -0.402324       -10.9478
  44   1.0000      -0.395019       -10.7490
  45   1.0000      -0.388545       -10.5729
  46   1.0000      -0.380118       -10.3435
  47   1.0000      -0.376116       -10.2346
  48   1.0000      -0.364723        -9.9246
  49   1.0000      -0.360679        -9.8146
  50   1.0000      -0.354926        -9.6580
  51   1.0000      -0.345096        -9.3905
  52   1.0000      -0.340796        -9.2735
  53   1.0000      -0.337043        -9.1714
  54   1.0000      -0.325848        -8.8668
  55   1.0000      -0.304603        -8.2887
  56   1.0000      -0.284767        -7.7489
  57   1.0000      -0.282632        -7.6908
  58   1.0000      -0.260606        -7.0915
  59   1.0000      -0.253078        -6.8866
  60   1.0000      -0.245459        -6.6793
  61   1.0000      -0.230924        -6.2838
  62   1.0000      -0.224961        -6.1215
  63   1.0000      -0.194698        -5.2980
  64   1.0000      -0.154844        -4.2135
  65   1.0000      -0.145464        -3.9583
  66   1.0000      -0.072434        -1.9710
  67   0.0000       0.141110         3.8398
  68   0.0000       0.143777         3.9124
  69   0.0000       0.153676         4.1817
  70   0.0000       0.170739         4.6460
  71   0.0000       0.173582         4.7234

                 SPIN DOWN ORBITALS
  NO   OCC          E(Eh)            E(eV)
   0   1.0000     -19.506357      -530.7950
   1   1.0000     -19.501405      -530.6602
   2   1.0000     -19.432252      -528.7785
   3   1.0000     -19.431887      -528.7685
   4   1.0000     -14.681604      -399.5068
   5   1.0000     -14.675020      -399.3276
   6   1.0000     -10.556499      -287.2569
   7   1.0000     -10.550505      -287.0938
   8   1.0000     -10.491629      -285.4917
   9   1.0000     -10.469592      -284.8921
  10   1.0000     -10.465342      -284.7764
  11   1.0000     -10.445567      -284.2383
  12   1.0000     -10.444617      -284.2125
  13   1.0000     -10.438491      -284.0458
  14   1.0000     -10.417771      -283.4820
  15   1.0000     -10.408681      -283.2346
  16   1.0000     -10.396637      -282.9069
  17   1.0000     -10.393293      -282.8159
  18   1.0000      -1.079740       -29.3812
  19   1.0000      -1.071324       -29.1522
  20   1.0000      -0.982901       -26.7461
  21   1.0000      -0.953364       -25.9424
  22   1.0000      -0.948594       -25.8126
  23   1.0000      -0.941071       -25.6078
  24   1.0000      -0.820813       -22.3355
  25   1.0000      -0.781994       -21.2791
  26   1.0000      -0.744291       -20.2532
  27   1.0000      -0.713487       -19.4150
  28   1.0000      -0.687481       -18.7073
  29   1.0000      -0.658049       -17.9064
  30   1.0000      -0.612462       -16.6659
  31   1.0000      -0.582137       -15.8408
  32   1.0000      -0.566455       -15.4140
  33   1.0000      -0.537497       -14.6260
  34   1.0000      -0.527411       -14.3516
  35   1.0000      -0.501512       -13.6468
  36   1.0000      -0.475890       -12.9496
  37   1.0000      -0.465618       -12.6701
  38   1.0000      -0.450397       -12.2559
  39   1.0000      -0.440096       -11.9756
  40   1.0000      -0.436208       -11.8698
  41   1.0000      -0.421534       -11.4705
  42   1.0000      -0.417615       -11.3639
  43   1.0000      -0.401555       -10.9269
  44   1.0000      -0.394156       -10.7255
  45   1.0000      -0.385622       -10.4933
  46   1.0000      -0.378687       -10.3046
  47   1.0000      -0.372988       -10.1495
  48   1.0000      -0.363736        -9.8978
  49   1.0000      -0.360031        -9.7969
  50   1.0000      -0.349005        -9.4969
  51   1.0000      -0.338991        -9.2244
  52   1.0000      -0.329987        -8.9794
  53   1.0000      -0.325928        -8.8690
  54   1.0000      -0.321297        -8.7429
  55   1.0000      -0.300016        -8.1638
  56   1.0000      -0.281002        -7.6465
  57   1.0000      -0.253052        -6.8859
  58   1.0000      -0.248378        -6.7587
  59   1.0000      -0.245985        -6.6936
  60   1.0000      -0.243679        -6.6309
  61   1.0000      -0.224864        -6.1189
  62   1.0000      -0.220251        -5.9933
  63   1.0000      -0.185202        -5.0396
  64   1.0000      -0.137672        -3.7463
  65   1.0000      -0.132790        -3.6134
  66   0.0000       0.075757         2.0614
  67   0.0000       0.141818         3.8591
  68   0.0000       0.144530         3.9329
  69   0.0000       0.154219         4.1965
  70   0.0000       0.173970         4.7340

MULLIKEN ATOMIC CHARGES AND SPIN POPULATIONS
--------------------------------------------
   0 N :   -0.367945    0.000970
   1 C :   -0.101281    0.037931
   2 C :    0.351306   -0.014818
   3 O :   -0.455130    0.000101
   4 C :   -0.362775   -0.019863
   5 C :    0.059685    0.103617
   6 C :   -0.304808    0.144047
   7 C :    0.148756    0.034914
   8 C :    0.154266    0.019097
   9 C :   -0.241293    0.156652
  10 C :   -0.242530    0.029525
  11 H :    0.257642    0.000213
  12 H :    0.194273   -0.007536
  13 H :    0.156900   -0.000136
  14 H :    0.190470    0.001300
  15 H :    0.116808   -0.004236
  16 O :   -0.420784    0.256518
  17 O :   -0.415329    0.271811
  18 H :    0.104740   -0.003095
  19 H :    0.143917   -0.007353
  20 C :    0.383419    0.000808
  21 N :   -0.290953    0.007448
  22 H :    0.269081   -0.005448
  23 O :   -0.423477    0.000049
  24 C :   -0.329562   -0.000534
  25 H :    0.155589    0.000770
  26 H :    0.134661    0.001278
  27 H :    0.182187   -0.004257
  28 C :   -0.465214    0.000225
  29 H :    0.148637    0.000006
  30 H :    0.146801   -0.000019
  31 H :    0.121945    0.000013
Sum of atomic charges         :   -1.0000000

LOEWDIN ATOMIC CHARGES AND SPIN POPULATIONS
-------------------------------------------
   0 N :    0.149377    0.000818
   1 C :   -0.233408    0.007766
   2 C :   -0.433946   -0.000216
   3 O :    0.024569    0.000126
   4 C :   -0.195114    0.007761
   5 C :   -0.213520    0.084549
   6 C :   -0.150211    0.082479
   7 C :   -0.365955    0.081285
   8 C :   -0.364667    0.084859
   9 C :   -0.168223    0.099883
  10 C :   -0.192912    0.090455
  11 H :    0.192257    0.000176
  12 H :    0.163061    0.000767
  13 H :    0.145905   -0.000006
  14 H :    0.152156    0.001824
  15 H :    0.139403   -0.000972
  16 O :    0.019067    0.221043
  17 O :    0.022706    0.233995
  18 H :    0.134387   -0.000878
  19 H :    0.140961   -0.000393
  20 C :   -0.493139    0.000103
  21 N :    0.117614    0.001695
  22 H :    0.202936    0.000272
  23 O :    0.039067    0.000167
  24 C :   -0.305378    0.001720
  25 H :    0.123027    0.000440
  26 H :    0.113553    0.000228
  27 H :    0.124003    0.000015
  28 C :   -0.271815    0.000030
  29 H :    0.133764    0.000009
  30 H :    0.132360   -0.000008
  31 H :    0.118116    0.000009

  Mayer bond orders larger than 0.100000
B(  0-N ,  1-C ) :   0.8767 B(  0-N , 11-H ) :   0.8797 B(  0-N , 20-C ) :   1.2448
B(  1-C ,  2-C ) :   0.9385 B(  1-C ,  4-C ) :   0.8570 B(  1-C , 12-H ) :   0.9860
B(  2-C ,  3-O ) :   1.8719 B(  2-C , 21-N ) :   1.2895 B(  4-C ,  5-C ) :   0.8604
B(  4-C , 13-H ) :   0.9835 B(  4-C , 14-H ) :   0.9876 B(  5-C ,  6-C ) :   1.4135
B(  5-C , 10-C ) :   1.1895 B(  6-C ,  7-C ) :   1.1830 B(  6-C , 15-H ) :   0.9768
B(  7-C ,  8-C ) :   0.9834 B(  7-C , 16-O ) :   1.8737 B(  8-C ,  9-C ) :   1.2017
B(  8-C , 17-O ) :   1.8915 B(  9-C , 10-C ) :   1.4928 B(  9-C , 18-H ) :   0.9639
B( 10-C , 19-H ) :   0.9494 B( 20-C , 23-O ) :   1.9317 B( 20-C , 28-C ) :   0.9059
B( 21-N , 22-H ) :   0.8987 B( 21-N , 24-C ) :   0.9246 B( 24-C , 25-H ) :   0.9649
B( 24-C , 26-H ) :   0.9711 B( 24-C , 27-H ) :   0.9625 B( 28-C , 29-H ) :   0.9627
B( 28-C , 30-H ) :   0.9693 B( 28-C , 31-H ) :   0.9834

FINAL SINGLE POINT ENERGY      -876.179438830428

DIPOLE MOMENT
-------------
                                X             Y             Z
Electronic contribution:      5.47350       5.62392       6.77515
Nuclear contribution   :     -8.31586      -8.00424     -10.07267
                        -----------------------------------------
Total Dipole Moment    :     -2.84236      -2.38032      -3.29752
                        -----------------------------------------
Magnitude (a.u.)       :      4.96171
Magnitude (Debye)      :     12.61166

VIBRATIONAL FREQUENCIES
-----------------------

Scaling factor for frequencies =  1.000000000  (already applied!)

   0:         0.00 cm**-1
   1:         0.00 cm**-1
   2:         0.00 cm**-1
   3:         0.00 cm**-1
   4:         0.00 cm**-1
   5:         0.00 cm**-1
   6:        24.19 cm**-1
   7:        34.26 cm**-1
   8:        51.70 cm**-1
   9:        63.82 cm**-1
  10:        71.57 cm**-1
  11:        94.39 cm**-1
  12:        99.32 cm**-1
  13:       110.41 cm**-1
  14:       123.76 cm**-1
  15:       148.28 cm**-1
  16:       167.87 cm**-1
  17:       233.53 cm**-1
  18:       238.10 cm**-1
  19:       286.38 cm**-1
  20:       305.17 cm**-1
  21:       321.40 cm**-1
  22:       335.76 cm**-1
  23:       354.87 cm**-1
  24:       386.04 cm**-1
  25:       401.71 cm**-1
  26:       452.15 cm**-1
  27:       483.65 cm**-1
  28:       509.28 cm**-1
  29:       536.34 cm**-1
  30:       559.30 cm**-1
  31:       606.38 cm**-1
  32:       618.69 cm**-1
  33:       650.86 cm**-1
  34:       658.74 cm**-1
  35:       675.21 cm**-1
  36:       718.31 cm**-1
  37:       733.09 cm**-1
  38:       757.30 cm**-1
  39:       771.16 cm**-1
  40:       806.68 cm**-1
  41:       827.67 cm**-1
  42:       864.10 cm**-1
  43:       882.96 cm**-1
  44:       947.72 cm**-1
  45:       955.64 cm**-1
  46:       975.84 cm**-1
  47:      1007.84 cm**-1
  48:      1037.94 cm**-1
  49:      1045.70 cm**-1
  50:      1060.18 cm**-1
  51:      1090.14 cm**-1
  52:      1141.75 cm**-1
  53:      1153.74 cm**-1
  54:      1175.16 cm**-1
  55:      1185.86 cm**-1
  56:      1193.14 cm**-1
  57:      1195.02 cm**-1
  58:      1197.07 cm**-1
  59:      1252.84 cm**-1
  60:      1288.35 cm**-1
  61:      1290.29 cm**-1
  62:      1314.46 cm**-1
  63:      1344.12 cm**-1
  64:      1365.17 cm**-1
  65:      1385.90 cm**-1
  66:      1410.06 cm**-1
  67:      1446.61 cm**-1
  68:      1465.35 cm**-1
  69:      1473.87 cm**-1
  70:      1482.59 cm**-1
  71:      1486.94 cm**-1
  72:      1501.00 cm**-1
  73:      1510.24 cm**-1
  74:      1548.41 cm**-1
  75:      1554.11 cm**-1
  76:      1602.70 cm**-1
  77:      1613.91 cm**-1
  78:      1631.18 cm**-1
  79:      1641.46 cm**-1
  80:      1759.53 cm**-1
  81:      1775.77 cm**-1
  82:      3067.10 cm**-1
  83:      3067.76 cm**-1
  84:      3085.28 cm**-1
  85:      3106.44 cm**-1
  86:      3125.20 cm**-1
  87:      3145.80 cm**-1
  88:      3166.57 cm**-1
  89:      3167.97 cm**-1
  90:      3173.46 cm**-1
  91:      3175.71 cm**-1
  92:      3189.69 cm**-1
  93:      3199.49 cm**-1
  94:      3568.68 cm**-1
  95:      3613.17 cm**-1

IR SPECTRUM
-----------

 Mode   freq       eps      Int      T**2         TX        TY        TZ
       cm**-1   L/(mol*cm) km/mol    a.u.
----------------------------------------------------------------------------
  6:     24.19   0.000910    4.60  0.011747  (-0.020255  0.091324  0.054739)
  7:     34.26   0.000511    2.58  0.004652  ( 0.029520  0.009249 -0.060783)
  8:     51.70   0.000025    0.13  0.000150  ( 0.010683  0.005884 -0.001164)
  9:     63.82   0.000201    1.01  0.000981  ( 0.008030  0.014369  0.026645)
 10:     71.57   0.000537    2.72  0.002343  (-0.032846 -0.014943  0.032268)
 11:     94.39   0.001455    7.35  0.004809  ( 0.023683 -0.017092  0.062900)
 12:     99.32   0.001984   10.03  0.006236  (-0.020658 -0.015258  0.074672)
 13:    110.41   0.000477    2.41  0.001347  ( 0.018759  0.001865 -0.031487)
 14:    123.76   0.000154    0.78  0.000388  ( 0.013529  0.012524  0.006911)
 15:    148.28   0.000988    4.99  0.002079  ( 0.040047 -0.015402  0.015441)
 16:    167.87   0.001210    6.12  0.002250  (-0.047421 -0.000509 -0.000722)
 17:    233.53   0.000434    2.19  0.000580  ( 0.012289  0.020405 -0.003561)
 18:    238.10   0.000185    0.94  0.000243  (-0.015341  0.000419  0.002666)
 19:    286.38   0.001824    9.22  0.001988  ( 0.041544  0.011598  0.011288)
 20:    305.17   0.000089    0.45  0.000091  (-0.004202  0.000342 -0.008577)
 21:    321.40   0.000288    1.45  0.000279  (-0.013494 -0.009824 -0.000915)
 22:    335.76   0.000085    0.43  0.000079  ( 0.001175  0.007766 -0.004145)
 23:    354.87   0.000010    0.05  0.000009  ( 0.002942  0.000076  0.000498)
 24:    386.04   0.004236   21.41  0.003425  (-0.051704 -0.006880  0.026530)
 25:    401.71   0.001647    8.32  0.001279  ( 0.018048 -0.004067  0.030610)
 26:    452.15   0.002616   13.22  0.001805  ( 0.005862  0.041116  0.008975)
 27:    483.65   0.000103    0.52  0.000066  (-0.006483 -0.004452 -0.002093)
 28:    509.28   0.003844   19.43  0.002355  ( 0.037182  0.018772  0.024910)
 29:    536.34   0.010045   50.77  0.005845  ( 0.011808  0.020228 -0.072775)
 30:    559.30   0.003383   17.10  0.001888  ( 0.031854  0.004102 -0.029263)
 31:    606.38   0.000962    4.86  0.000495  (-0.010310  0.019271 -0.004189)
 32:    618.69   0.003846   19.43  0.001940  ( 0.002546 -0.015091  0.041298)
 33:    650.86   0.002989   15.10  0.001433  ( 0.008174 -0.017793  0.032397)
 34:    658.74   0.001546    7.81  0.000732  (-0.003342 -0.011089  0.024458)
 35:    675.21   0.006630   33.50  0.003064  ( 0.026535  0.026751 -0.040550)
 36:    718.31   0.007174   36.25  0.003116  (-0.016313 -0.008885  0.052644)
 37:    733.09   0.002885   14.58  0.001228  (-0.014127 -0.011668  0.029875)
 38:    757.30   0.001699    8.59  0.000700  ( 0.004917 -0.011081 -0.023520)
 39:    771.16   0.000093    0.47  0.000038  ( 0.005682  0.001878 -0.001396)
 40:    806.68   0.001546    7.81  0.000598  (-0.007753  0.020907  0.010044)
 41:    827.67   0.007321   37.00  0.002760  ( 0.016591 -0.004676 -0.049629)
 42:    864.10   0.000650    3.28  0.000235  ( 0.001980  0.004431  0.014531)
 43:    882.96   0.003980   20.11  0.001407  ( 0.019340 -0.005574 -0.031645)
 44:    947.72   0.000006    0.03  0.000002  (-0.001173  0.000495  0.000523)
 45:    955.64   0.002193   11.08  0.000716  ( 0.016183  0.021316 -0.000010)
 46:    975.84   0.002900   14.66  0.000927  (-0.028715 -0.006336 -0.007923)
 47:   1007.84   0.001078    5.45  0.000334  (-0.013774  0.011962 -0.001044)
 48:   1037.94   0.000796    4.02  0.000239  (-0.011119 -0.001929 -0.010575)
 49:   1045.70   0.001037    5.24  0.000309  (-0.014453 -0.001575 -0.009901)
 50:   1060.18   0.000934    4.72  0.000275  ( 0.005186  0.006904 -0.014152)
 51:   1090.14   0.001462    7.39  0.000418  (-0.012906 -0.015599 -0.002913)
 52:   1141.75   0.001987   10.04  0.000543  (-0.005132  0.022669 -0.001696)
 53:   1153.74   0.003035   15.34  0.000821  ( 0.021763  0.018588 -0.001282)
 54:   1175.16   0.000315    1.59  0.000084  (-0.000689 -0.005756  0.007069)
 55:   1185.86   0.000351    1.78  0.000092  ( 0.003448 -0.005253 -0.007277)
 56:   1193.14   0.000735    3.71  0.000192  (-0.012795 -0.005164 -0.001370)
 57:   1195.02   0.001375    6.95  0.000359  (-0.009787 -0.016063 -0.002290)
 58:   1197.07   0.004517   22.83  0.001178  ( 0.029257  0.007924  0.016090)
 59:   1252.84   0.003468   17.53  0.000864  ( 0.024070  0.009636  0.013843)
 60:   1288.35   0.000346    1.75  0.000084  ( 0.008611 -0.002502  0.001827)
 61:   1290.29   0.007503   37.92  0.001815  (-0.041441  0.001635  0.009728)
 62:   1314.46   0.001725    8.72  0.000410  ( 0.018430 -0.002260  0.008048)
 63:   1344.12   0.001992   10.07  0.000462  (-0.021313  0.001724  0.002298)
 64:   1365.17   0.001468    7.42  0.000336  ( 0.017534 -0.003900 -0.003590)
 65:   1385.90   0.000564    2.85  0.000127  (-0.009753  0.004173  0.003813)
 66:   1410.06   0.013989   70.69  0.003096  (-0.051669 -0.016424 -0.012509)
 67:   1446.61   0.002849   14.40  0.000615  (-0.000387 -0.023967 -0.006333)
 68:   1465.35   0.006010   30.37  0.001280  ( 0.029857  0.005257  0.018998)
 69:   1473.87   0.001376    6.95  0.000291  ( 0.004570 -0.008422  0.014125)
 70:   1482.59   0.003197   16.15  0.000673  ( 0.024640 -0.000860 -0.008062)
 71:   1486.94   0.006092   30.79  0.001278  ( 0.032653 -0.014554 -0.000668)
 72:   1501.00   0.004315   21.81  0.000897  ( 0.023314  0.009224 -0.016388)
 73:   1510.24   0.003653   18.46  0.000755  ( 0.026177 -0.008123  0.001893)
 74:   1548.41   0.018301   92.49  0.003688  ( 0.041655  0.021805  0.038442)
 75:   1554.11   0.129816  656.03  0.026067  ( 0.149074  0.033928  0.051890)
 76:   1602.70   0.013956   70.53  0.002717  ( 0.045199  0.016000 -0.020455)
 77:   1613.91   0.017407   87.97  0.003366  (-0.005453  0.057322 -0.007087)
 78:   1631.18   0.016424   83.00  0.003142  ( 0.024371  0.049594  0.009410)
 79:   1641.46   0.082729  418.08  0.015728  ( 0.104892  0.012692  0.067562)
 80:   1759.53   0.093267  471.33  0.016542  ( 0.000366 -0.122113 -0.040372)
 81:   1775.77   0.033315  168.36  0.005855  (-0.068549  0.033090 -0.007786)
 82:   3067.10   0.005795   29.29  0.000590  (-0.023972  0.003436  0.001786)
 83:   3067.76   0.003083   15.58  0.000314  ( 0.011935  0.012301 -0.004454)
 84:   3085.28   0.001561    7.89  0.000158  (-0.006412 -0.009295 -0.005510)
 85:   3106.44   0.001622    8.20  0.000163  (-0.012103 -0.003916  0.001064)
 86:   3125.20   0.001396    7.06  0.000139  ( 0.000943  0.011687 -0.001384)
 87:   3145.80   0.003119   15.76  0.000309  (-0.011374 -0.005989  0.012006)
 88:   3166.57   0.002154   10.88  0.000212  (-0.012465 -0.000703 -0.007507)
 89:   3167.97   0.000788    3.98  0.000078  (-0.001682 -0.000226  0.008643)
 90:   3173.46   0.002513   12.70  0.000247  (-0.000607  0.015407 -0.003061)
 91:   3175.71   0.002249   11.37  0.000221  (-0.008530  0.012147  0.000848)
 92:   3189.69   0.000692    3.50  0.000068  ( 0.000039 -0.007363 -0.003668)
 93:   3199.49   0.003377   17.06  0.000329  (-0.002535  0.017785 -0.002574)
 94:   3568.68   0.030550  154.39  0.002671  ( 0.003836  0.036264  0.036628)
 95:   3613.17   0.021250  107.39  0.001835  (-0.032037  0.027453  0.007433)

--------------------------
THERMOCHEMISTRY AT 298.15K
--------------------------

Temperature         ... 298.15 K
Pressure            ... 1.00 atm
Total Mass          ... 250.25 AMU

Throughout the following assumptions are being made:
  (1) The electronic state is orbitally nondegenerate
      but the spin degeneracy is treated
  (2) There are no thermally accessible electronically excited states
  (3) Hindered rotations indicated by low frequency modes are not
      treated as such but are treated as vibrations and this may
      cause some error
  (4) All equations used are the standard statistical mechanics
      equations for an ideal gas
  (5) All vibrations are strictly harmonic

freq.      24.19  E(vib)   ...       0.56
freq.      34.26  E(vib)   ...       0.54
freq.      51.70  E(vib)   ...       0.52
freq.      63.82  E(vib)   ...       0.51
freq.      71.57  E(vib)   ...       0.50
freq.      94.39  E(vib)   ...       0.47
freq.      99.32  E(vib)   ...       0.46
freq.     110.41  E(vib)   ...       0.45
freq.     123.76  E(vib)   ...       0.43
freq.     148.28  E(vib)   ...       0.41
freq.     167.87  E(vib)   ...       0.38
freq.     233.53  E(vib)   ...       0.32
freq.     238.10  E(vib)   ...       0.32
freq.     286.38  E(vib)   ...       0.27
freq.     305.17  E(vib)   ...       0.26
freq.     321.40  E(vib)   ...       0.25
freq.     335.76  E(vib)   ...       0.24
freq.     354.87  E(vib)   ...       0.22
freq.     386.04  E(vib)   ...       0.20
freq.     401.71  E(vib)   ...       0.19
freq.     452.15  E(vib)   ...       0.16
freq.     483.65  E(vib)   ...       0.15
freq.     509.28  E(vib)   ...       0.14
freq.     536.34  E(vib)   ...       0.12
freq.     559.30  E(vib)   ...       0.12
freq.     606.38  E(vib)   ...       0.10
freq.     618.69  E(vib)   ...       0.09
freq.     650.86  E(vib)   ...       0.08
freq.     658.74  E(vib)   ...       0.08
freq.     675.21  E(vib)   ...       0.08
freq.     718.31  E(vib)   ...       0.07
freq.     733.09  E(vib)   ...       0.06
freq.     757.30  E(vib)   ...       0.06
freq.     771.16  E(vib)   ...       0.05
freq.     806.68  E(vib)   ...       0.05
freq.     827.67  E(vib)   ...       0.04
freq.     864.10  E(vib)   ...       0.04
freq.     882.96  E(vib)   ...       0.04
freq.     947.72  E(vib)   ...       0.03
freq.     955.64  E(vib)   ...       0.03
freq.     975.84  E(vib)   ...       0.03
freq.    1007.84  E(vib)   ...       0.02
freq.    1037.94  E(vib)   ...       0.02
freq.    1045.70  E(vib)   ...       0.02
freq.    1060.18  E(vib)   ...       0.02
freq.    1090.14  E(vib)   ...       0.02
freq.    1141.75  E(vib)   ...       0.01
freq.    1153.74  E(vib)   ...       0.01
freq.    1175.16  E(vib)   ...       0.01
freq.    1185.86  E(vib)   ...       0.01
freq.    1193.14  E(vib)   ...       0.01
freq.    1195.02  E(vib)   ...       0.01
freq.    1197.07  E(vib)   ...       0.01
freq.    1252.84  E(vib)   ...       0.01
freq.    1288.35  E(vib)   ...       0.01
freq.    1290.29  E(vib)   ...       0.01
freq.    1314.46  E(vib)   ...       0.01
freq.    1344.12  E(vib)   ...       0.01
freq.    1365.17  E(vib)   ...       0.01
freq.    1385.90  E(vib)   ...       0.00
freq.    1410.06  E(vib)   ...       0.00
freq.    1446.61  E(vib)   ...       0.00
freq.    1465.35  E(vib)   ...       0.00
freq.    1473.87  E(vib)   ...       0.00
freq.    1482.59  E(vib)   ...       0.00
freq.    1486.94  E(vib)   ...       0.00
freq.    1501.00  E(vib)   ...       0.00
freq.    1510.24  E(vib)   ...       0.00
freq.    1548.41  E(vib)   ...       0.00
freq.    1554.11  E(vib)   ...       0.00
freq.    1602.70  E(vib)   ...       0.00
freq.    1613.91  E(vib)   ...       0.00
freq.    1631.18  E(vib)   ...       0.00
freq.    1641.46  E(vib)   ...       0.00
freq.    1759.53  E(vib)   ...       0.00
freq.    1775.77  E(vib)   ...       0.00
freq.    3067.10  E(vib)   ...       0.00
freq.    3067.76  E(vib)   ...       0.00
freq.    3085.28  E(vib)   ...       0.00
freq.    3106.44  E(vib)   ...       0.00
freq.    3125.20  E(vib)   ...       0.00
freq.    3145.80  E(vib)   ...       0.00
freq.    3166.57  E(vib)   ...       0.00
freq.    3167.97  E(vib)   ...       0.00
freq.    3173.46  E(vib)   ...       0.00
freq.    3175.71  E(vib)   ...       0.00
freq.    3189.69  E(vib)   ...       0.00
freq.    3199.49  E(vib)   ...       0.00
freq.    3568.68  E(vib)   ...       0.00
freq.    3613.17  E(vib)   ...       0.00

------------
INNER ENERGY
------------

The inner energy is: U= E(el) + E(ZPE) + E(vib) + E(rot) + E(trans)
    E(el)   - is the total energy from the electronic structure calculation
              = E(kin-el) + E(nuc-el) + E(el-el) + E(nuc-nuc)
    E(ZPE)  - the the zero temperature vibrational energy from the frequency calculation
    E(vib)  - the the finite temperature correction to E(ZPE) due to population
              of excited vibrational states
    E(rot)  - is the rotational thermal energy
    E(trans)- is the translational thermal energy

Summary of contributions to the inner energy U:
Electronic energy                ...   -876.17943883 Eh
Zero point energy                ...      0.25361544 Eh     159.15 kcal/mol
Thermal vibrational correction   ...      0.01495088 Eh       9.38 kcal/mol
Thermal rotational correction    ...      0.00141627 Eh       0.89 kcal/mol
Thermal translational correction ...      0.00141627 Eh       0.89 kcal/mol
-----------------------------------------------------------------------
Total thermal energy                   -875.90803997 Eh

Summary of corrections to the electronic energy:
(perhaps to be used in another calculation)
Total thermal correction                  0.01778342 Eh      11.16 kcal/mol
Non-thermal (ZPE) correction              0.25361544 Eh     159.15 kcal/mol
-----------------------------------------------------------------------
Total correction                          0.27139886 Eh     170.30 kcal/mol

--------
ENTHALPY
--------

The enthalpy is H = U + kB*T
                kB is Boltzmann's constant
Total free energy                 ...   -875.90803997 Eh
Thermal Enthalpy correction       ...      0.00094421 Eh       0.59 kcal/mol
-----------------------------------------------------------------------
Total Enthalpy                    ...   -875.90709576 Eh

Note: Only C1 symmetry has been detected, increase convergence thresholds
      if your molecule has a higher symmetry. Symmetry factor of 1.0 is
      used for the rotational entropy correction.

Note: Rotational entropy computed according to Herzberg
Infrared and Raman Spectra, Chapter V,1, Van Nostrand Reinhold, 1945
Point Group:  C1, Symmetry Number:   1
Rotational constants in cm-1:     0.025747     0.007858     0.006728

                             ****ORCA TERMINATED NORMALLY****
TOTAL RUN TIME: 0 days 0 hours 42 minutes 57 seconds 865 msec
