                         Program Version 5.0.4 -  RELEASE  -
|  1> ! M062X def2-TZVP OPT FREQ
|  2> %pal nprocs 16 end
|  3> *XYZFile -1 1 opt.xyz
|  4>
|  5>                          ****END OF INPUT****
 Total Charge           Charge          ....   -1
 Multiplicity           Mult            ....    1
 Number of Electrons    NEL             ....  134
FINAL SINGLE POINT ENERGY      -876.783749704416
FINAL SINGLE POINT ENERGY      -876.788066497032
FINAL SINGLE POINT ENERGY      -876.787627288967
FINAL SINGLE POINT ENERGY      -876.788663272042
FINAL SINGLE POINT ENERGY      -876.788922427035
FINAL SINGLE POINT ENERGY      -876.789142509675
FINAL SINGLE POINT ENERGY      -876.789303231069
FINAL SINGLE POINT ENERGY      -876.789362884401
FINAL SINGLE POINT ENERGY      -876.789395060941
FINAL SINGLE POINT ENERGY      -876.789402548594
FINAL SINGLE POINT ENERGY      -876.789397612135
FINAL SINGLE POINT ENERGY      -876.789408309797
FINAL SINGLE POINT ENERGY      -876.789411018357
                    ***********************HURRAY********************

CARTESIAN COORDINATES (ANGSTROEM)
---------------------------------
  N      0.913264   -0.799740   -3.729437
  C      1.875872    0.129886   -3.180485
  C      3.261819   -0.443858   -3.472973
  O      3.410695   -1.642273   -3.681433
  C      1.672518    0.348007   -1.657066
  C      2.743324    1.219431   -1.068729
  C      3.842100    0.650359   -0.401607
  C      4.970745    1.370321   -0.087728
  C      5.127425    2.773361   -0.428337
  C      3.980964    3.308667   -1.103774
  C      2.842568    2.567230   -1.397709
  H      1.267486   -1.731887   -3.888911
  H      1.758819    1.094169   -3.678042
  H      1.670559   -0.636806   -1.180868
  H      0.673504    0.777157   -1.545304
  H      3.814503   -0.412245   -0.155645
  O      6.033283    0.787262    0.567721
  O      6.158927    3.426308   -0.152385
  H      4.032263    4.359759   -1.365265
  H      2.020021    3.042717   -1.927596
  C     -0.345880   -0.454609   -4.054665
  N      4.272958    0.441731   -3.480197
  H      5.782864   -0.117589    0.773776
  H      4.086966    1.343311   -3.052324
  O     -0.791045    0.673031   -3.922753
  C      5.646013   -0.017368   -3.449459
  H      5.783476   -0.795596   -4.197617
  H      6.300465    0.824349   -3.663830
  H      5.904272   -0.416181   -2.465007
  C     -1.209975   -1.575404   -4.599604
  H     -2.009010   -1.768010   -3.883604
  H     -1.667516   -1.235915   -5.527400
  H     -0.657664   -2.496632   -4.777647

 Multiplicity           Mult            ....    1
 Number of Electrons    NEL             ....  134
 Basis Dimension        Dim             ....  648

ORBITAL ENERGIES
----------------

  NO   OCC          E(Eh)            E(eV)
   0   2.0000     -19.510146      -530.8981
   1   2.0000     -19.498291      -530.5755
   2   2.0000     -19.494564      -530.4741
   3   2.0000     -19.388886      -527.5984
   4   2.0000     -14.674464      -399.3125
   5   2.0000     -14.663026      -399.0012
   6   2.0000     -10.550015      -287.0805
   7   2.0000     -10.539921      -286.8058
   8   2.0000     -10.480161      -285.1797
   9   2.0000     -10.460951      -284.6569
  10   2.0000     -10.460340      -284.6403
  11   2.0000     -10.438992      -284.0594
  12   2.0000     -10.428811      -283.7824
  13   2.0000     -10.428505      -283.7741
  14   2.0000     -10.397443      -282.9288
  15   2.0000     -10.393953      -282.8339
  16   2.0000     -10.391474      -282.7664
  17   2.0000     -10.372737      -282.2565
  18   2.0000      -1.071046       -29.1447
  19   2.0000      -1.063040       -28.9268
  20   2.0000      -1.037329       -28.2271
  21   2.0000      -0.940930       -25.6040
  22   2.0000      -0.934151       -25.4195
  23   2.0000      -0.929692       -25.2982
  24   2.0000      -0.812472       -22.1085
  25   2.0000      -0.776299       -21.1242
  26   2.0000      -0.737797       -20.0765
  27   2.0000      -0.701953       -19.1011
  28   2.0000      -0.687347       -18.7037
  29   2.0000      -0.663768       -18.0620
  30   2.0000      -0.612659       -16.6713
  31   2.0000      -0.573897       -15.6165
  32   2.0000      -0.559956       -15.2372
  33   2.0000      -0.554519       -15.0892
  34   2.0000      -0.519878       -14.1466
  35   2.0000      -0.506410       -13.7801
  36   2.0000      -0.468480       -12.7480
  37   2.0000      -0.466324       -12.6893
  38   2.0000      -0.456293       -12.4164
  39   2.0000      -0.441322       -12.0090
  40   2.0000      -0.431646       -11.7457
  41   2.0000      -0.426034       -11.5930
  42   2.0000      -0.413244       -11.2449
  43   2.0000      -0.397337       -10.8121
  44   2.0000      -0.395151       -10.7526
  45   2.0000      -0.386508       -10.5174
  46   2.0000      -0.376058       -10.2330
  47   2.0000      -0.372311       -10.1311
  48   2.0000      -0.356226        -9.6934
  49   2.0000      -0.352574        -9.5940
  50   2.0000      -0.349500        -9.5104
  51   2.0000      -0.345667        -9.4061
  52   2.0000      -0.338072        -9.1994
  53   2.0000      -0.323469        -8.8021
  54   2.0000      -0.315049        -8.5729
  55   2.0000      -0.309749        -8.4287
  56   2.0000      -0.276297        -7.5184
  57   2.0000      -0.273684        -7.4473
  58   2.0000      -0.264460        -7.1963
  59   2.0000      -0.243452        -6.6247
  60   2.0000      -0.240475        -6.5437
  61   2.0000      -0.236208        -6.4275
  62   2.0000      -0.217266        -5.9121
  63   2.0000      -0.213734        -5.8160
  64   2.0000      -0.151371        -4.1190
  65   2.0000      -0.134338        -3.6555
  66   2.0000      -0.071114        -1.9351
  67   0.0000       0.146158         3.9772
  68   0.0000       0.149612         4.0711
  69   0.0000       0.157975         4.2987
  70   0.0000       0.170364         4.6358
  71   0.0000       0.175470         4.7748

MULLIKEN ATOMIC CHARGES
-----------------------
   0 N :   -0.366386
   1 C :   -0.083561
   2 C :    0.352603
   3 O :   -0.457701
   4 C :   -0.393964
   5 C :    0.002778
   6 C :   -0.255908
   7 C :    0.112050
   8 C :    0.151986
   9 C :   -0.275326
  10 C :   -0.243209
  11 H :    0.254393
  12 H :    0.188122
  13 H :    0.140024
  14 H :    0.181817
  15 H :    0.117460
  16 O :   -0.433135
  17 O :   -0.511922
  18 H :    0.090953
  19 H :    0.120503
  20 C :    0.382087
  21 N :   -0.291771
  22 H :    0.288442
  23 H :    0.279949
  24 O :   -0.426307
  25 C :   -0.323024
  26 H :    0.142976
  27 H :    0.149537
  28 H :    0.160508
  29 C :   -0.467036
  30 H :    0.146563
  31 H :    0.145567
  32 H :    0.120930
Sum of atomic charges:   -1.0000000

LOEWDIN ATOMIC CHARGES
----------------------
   0 N :    0.149398
   1 C :   -0.232796
   2 C :   -0.433724
   3 O :    0.022078
   4 C :   -0.209018
   5 C :   -0.240414
   6 C :   -0.181439
   7 C :   -0.270173
   8 C :   -0.410010
   9 C :   -0.189396
  10 C :   -0.199404
  11 H :    0.191469
  12 H :    0.162538
  13 H :    0.141234
  14 H :    0.147588
  15 H :    0.135098
  16 O :    0.043443
  17 O :   -0.079694
  18 H :    0.131006
  19 H :    0.138294
  20 C :   -0.494251
  21 N :    0.116689
  22 H :    0.167440
  23 H :    0.206031
  24 O :    0.035586
  25 C :   -0.309548
  26 H :    0.116960
  27 H :    0.119623
  28 H :    0.117533
  29 C :   -0.273539
  30 H :    0.132693
  31 H :    0.131200
  32 H :    0.117507

  Mayer bond orders larger than 0.100000
B(  0-N ,  1-C ) :   0.8614 B(  0-N , 11-H ) :   0.8802 B(  0-N , 20-C ) :   1.2485
B(  1-C ,  2-C ) :   0.9337 B(  1-C ,  4-C ) :   0.8502 B(  1-C , 12-H ) :   0.9924
B(  2-C ,  3-O ) :   1.8683 B(  2-C , 21-N ) :   1.2860 B(  4-C ,  5-C ) :   0.8796
B(  4-C , 13-H ) :   0.9914 B(  4-C , 14-H ) :   0.9933 B(  5-C ,  6-C ) :   1.2963
B(  5-C , 10-C ) :   1.3758 B(  6-C ,  7-C ) :   1.4552 B(  6-C , 15-H ) :   0.9122
B(  7-C ,  8-C ) :   1.0572 B(  7-C , 16-O ) :   1.0673 B(  8-C ,  9-C ) :   1.3078
B(  8-C , 17-O ) :   1.9693 B(  9-C , 10-C ) :   1.3619 B(  9-C , 18-H ) :   0.9796
B( 10-C , 19-H ) :   0.9708 B( 16-O , 22-H ) :   0.9055 B( 20-C , 24-O ) :   1.9378
B( 20-C , 29-C ) :   0.9063 B( 21-N , 23-H ) :   0.8909 B( 21-N , 25-C ) :   0.9334
B( 25-C , 26-H ) :   0.9664 B( 25-C , 27-H ) :   0.9707 B( 25-C , 28-H ) :   0.9705
B( 29-C , 30-H ) :   0.9614 B( 29-C , 31-H ) :   0.9725 B( 29-C , 32-H ) :   0.9824

FINAL SINGLE POINT ENERGY      -876.789413404463

DIPOLE MOMENT
-------------
                                X             Y             Z
Electronic contribution:      4.02424       4.41224       4.80877
Nuclear contribution   :     -6.27614      -7.65664      -6.88194
                        -----------------------------------------
Total Dipole Moment    :     -2.25190      -3.24439      -2.07317
                        -----------------------------------------
Magnitude (a.u.)       :      4.46040
Magnitude (Debye)      :     11.33744

VIBRATIONAL FREQUENCIES
-----------------------

Scaling factor for frequencies =  1.000000000  (already applied!)

   0:         0.00 cm**-1
   1:         0.00 cm**-1
   2:         0.00 cm**-1
   3:         0.00 cm**-1
   4:         0.00 cm**-1
   5:         0.00 cm**-1
   6:        35.05 cm**-1
   7:        47.75 cm**-1
   8:        56.34 cm**-1
   9:        64.34 cm**-1
  10:        84.63 cm**-1
  11:        91.41 cm**-1
  12:       110.62 cm**-1
  13:       114.30 cm**-1
  14:       136.10 cm**-1
  15:       145.34 cm**-1
  16:       161.07 cm**-1
  17:       232.12 cm**-1
  18:       262.35 cm**-1
  19:       279.63 cm**-1
  20:       300.17 cm**-1
  21:       312.48 cm**-1
  22:       315.62 cm**-1
  23:       335.75 cm**-1
  24:       355.51 cm**-1
  25:       379.78 cm**-1
  26:       417.51 cm**-1
  27:       459.87 cm**-1
  28:       469.13 cm**-1
  29:       510.19 cm**-1
  30:       553.01 cm**-1
  31:       563.74 cm**-1
  32:       599.69 cm**-1
  33:       621.10 cm**-1
  34:       648.48 cm**-1
  35:       665.48 cm**-1
  36:       679.30 cm**-1
  37:       725.51 cm**-1
  38:       748.34 cm**-1
  39:       753.77 cm**-1
  40:       775.04 cm**-1
  41:       821.40 cm**-1
  42:       838.82 cm**-1
  43:       863.48 cm**-1
  44:       884.20 cm**-1
  45:       948.43 cm**-1
  46:       956.00 cm**-1
  47:       976.85 cm**-1
  48:      1008.67 cm**-1
  49:      1031.03 cm**-1
  50:      1040.17 cm**-1
  51:      1058.16 cm**-1
  52:      1093.50 cm**-1
  53:      1126.09 cm**-1
  54:      1147.87 cm**-1
  55:      1164.14 cm**-1
  56:      1168.12 cm**-1
  57:      1185.75 cm**-1
  58:      1197.54 cm**-1
  59:      1202.25 cm**-1
  60:      1251.03 cm**-1
  61:      1259.15 cm**-1
  62:      1286.32 cm**-1
  63:      1296.50 cm**-1
  64:      1317.01 cm**-1
  65:      1344.04 cm**-1
  66:      1358.67 cm**-1
  67:      1385.11 cm**-1
  68:      1408.20 cm**-1
  69:      1448.97 cm**-1
  70:      1452.71 cm**-1
  71:      1474.04 cm**-1
  72:      1481.94 cm**-1
  73:      1487.40 cm**-1
  74:      1489.56 cm**-1
  75:      1502.44 cm**-1
  76:      1505.26 cm**-1
  77:      1557.63 cm**-1
  78:      1580.13 cm**-1
  79:      1590.95 cm**-1
  80:      1626.32 cm**-1
  81:      1662.64 cm**-1
  82:      1754.37 cm**-1
  83:      1773.19 cm**-1
  84:      3058.97 cm**-1
  85:      3064.17 cm**-1
  86:      3083.90 cm**-1
  87:      3106.61 cm**-1
  88:      3118.56 cm**-1
  89:      3121.10 cm**-1
  90:      3143.08 cm**-1
  91:      3151.84 cm**-1
  92:      3166.81 cm**-1
  93:      3175.44 cm**-1
  94:      3183.36 cm**-1
  95:      3198.40 cm**-1
  96:      3526.28 cm**-1
  97:      3610.86 cm**-1
  98:      3871.09 cm**-1

IR SPECTRUM
-----------

 Mode   freq       eps      Int      T**2         TX        TY        TZ
       cm**-1   L/(mol*cm) km/mol    a.u.
----------------------------------------------------------------------------
  6:     35.05   0.000711    3.59  0.006331  ( 0.021732 -0.052247 -0.055941)
  7:     47.75   0.000226    1.14  0.001479  (-0.010507  0.034742 -0.012707)
  8:     56.34   0.000230    1.16  0.001274  ( 0.018471  0.027758  0.012746)
  9:     64.34   0.000256    1.30  0.001244  (-0.007693  0.018661  0.028917)
 10:     84.63   0.001112    5.62  0.004099  ( 0.031645  0.003053 -0.055573)
 11:     91.41   0.002972   15.02  0.010145  (-0.006966  0.005838 -0.100311)
 12:    110.62   0.000202    1.02  0.000570  (-0.019484  0.002284  0.013591)
 13:    114.30   0.000392    1.98  0.001071  ( 0.018996  0.006342  0.025884)
 14:    136.10   0.000229    1.16  0.000524  ( 0.014093 -0.006733 -0.016740)
 15:    145.34   0.000773    3.91  0.001660  (-0.036399  0.000994 -0.018277)
 16:    161.07   0.002026   10.24  0.003926  (-0.062255  0.003598 -0.006088)
 17:    232.12   0.000881    4.45  0.001184  ( 0.022825  0.025172 -0.005442)
 18:    262.35   0.002533   12.80  0.003013  ( 0.014942 -0.018639 -0.049420)
 19:    279.63   0.002061   10.41  0.002300  ( 0.028637  0.016342  0.034821)
 20:    300.17   0.000943    4.77  0.000981  ( 0.028280 -0.000363 -0.013453)
 21:    312.48   0.001713    8.66  0.001711  ( 0.000877  0.006951  0.040765)
 22:    315.62   0.011244   56.82  0.011117  ( 0.040999 -0.030729 -0.092150)
 23:    335.75   0.000470    2.38  0.000437  (-0.017416 -0.008724 -0.007595)
 24:    355.51   0.000170    0.86  0.000149  ( 0.010076  0.004108  0.005538)
 25:    379.78   0.003469   17.53  0.002850  (-0.049117 -0.003577  0.020620)
 26:    417.51   0.001479    7.48  0.001106  (-0.006676 -0.007136  0.031783)
 27:    459.87   0.000717    3.63  0.000487  (-0.001291 -0.004302 -0.021603)
 28:    469.13   0.004038   20.40  0.002686  ( 0.041238  0.021755  0.022626)
 29:    510.19   0.002764   13.97  0.001691  ( 0.024911  0.029488  0.014157)
 30:    553.01   0.007464   37.72  0.004212  ( 0.000537  0.018370 -0.062242)
 31:    563.74   0.005718   28.90  0.003165  (-0.035995  0.001757  0.043205)
 32:    599.69   0.001409    7.12  0.000733  ( 0.010564 -0.016928  0.018308)
 33:    621.10   0.004054   20.49  0.002037  ( 0.002884  0.011780 -0.043473)
 34:    648.48   0.002656   13.42  0.001278  (-0.021306  0.011063 -0.026491)
 35:    665.48   0.001185    5.99  0.000556  (-0.006218  0.010956 -0.019926)
 36:    679.30   0.008604   43.48  0.003952  (-0.029633 -0.029524  0.046933)
 37:    725.51   0.004697   23.73  0.002020  (-0.014233 -0.004128  0.042432)
 38:    748.34   0.005686   28.73  0.002371  ( 0.017877  0.024642 -0.038004)
 39:    753.77   0.000475    2.40  0.000196  (-0.005722 -0.005442 -0.011580)
 40:    775.04   0.000499    2.52  0.000201  ( 0.005224  0.012162 -0.005059)
 41:    821.40   0.001389    7.02  0.000528  (-0.000127 -0.022909 -0.001698)
 42:    838.82   0.004886   24.69  0.001818  (-0.011169  0.012183  0.039299)
 43:    863.48   0.005620   28.40  0.002031  ( 0.005020  0.011843  0.043195)
 44:    884.20   0.006646   33.59  0.002346  (-0.016079  0.004724  0.045441)
 45:    948.43   0.000738    3.73  0.000243  ( 0.001257 -0.015479 -0.001251)
 46:    956.00   0.001525    7.71  0.000498  (-0.006304 -0.021354  0.001476)
 47:    976.85   0.003375   17.05  0.001078  ( 0.028828 -0.006818  0.014162)
 48:   1008.67   0.001249    6.31  0.000386  (-0.014384  0.012928 -0.003525)
 49:   1031.03   0.000668    3.38  0.000202  ( 0.008666  0.008955  0.006848)
 50:   1040.17   0.001346    6.80  0.000404  (-0.017484 -0.004241 -0.008961)
 51:   1058.16   0.001007    5.09  0.000297  (-0.006893 -0.005883  0.014658)
 52:   1093.50   0.001327    6.70  0.000379  (-0.012151 -0.014879 -0.003090)
 53:   1126.09   0.012912   65.25  0.003578  ( 0.033877 -0.041116  0.027203)
 54:   1147.87   0.002564   12.96  0.000697  (-0.020883 -0.016088 -0.001453)
 55:   1164.14   0.015475   78.21  0.004148  (-0.052657  0.018892 -0.031917)
 56:   1168.12   0.029848  150.84  0.007974  ( 0.073063 -0.014371  0.049285)
 57:   1185.75   0.000328    1.66  0.000086  (-0.007806 -0.004701  0.001793)
 58:   1197.54   0.002759   13.94  0.000719  ( 0.020776  0.007252  0.015318)
 59:   1202.25   0.004467   22.57  0.001159  (-0.028977 -0.013325 -0.011926)
 60:   1251.03   0.007391   37.35  0.001844  ( 0.020589 -0.032558  0.018967)
 61:   1259.15   0.004425   22.36  0.001097  (-0.028467 -0.011307 -0.012589)
 62:   1286.32   0.015223   76.93  0.003693  ( 0.058375 -0.010587  0.013166)
 63:   1296.50   0.003500   17.69  0.000843  ( 0.009203 -0.001379  0.027494)
 64:   1317.01   0.000820    4.15  0.000194  (-0.003167 -0.007097 -0.011577)
 65:   1344.04   0.003323   16.79  0.000771  ( 0.025618 -0.006722  0.008370)
 66:   1358.67   0.000358    1.81  0.000082  ( 0.005132  0.001650 -0.007287)
 67:   1385.11   0.001422    7.19  0.000320  ( 0.017506 -0.003666  0.000691)
 68:   1408.20   0.015626   78.97  0.003463  ( 0.053065  0.019183  0.016702)
 69:   1448.97   0.001934    9.77  0.000416  ( 0.005897  0.018714  0.005606)
 70:   1452.71   0.011020   55.69  0.002367  ( 0.040349  0.019130  0.019319)
 71:   1474.04   0.002131   10.77  0.000451  (-0.011423  0.009181 -0.015375)
 72:   1481.94   0.000952    4.81  0.000200  (-0.013595 -0.000484  0.003915)
 73:   1487.40   0.007012   35.44  0.001471  (-0.034419 -0.002965  0.016665)
 74:   1489.56   0.002789   14.09  0.000584  (-0.017382  0.015992 -0.005132)
 75:   1502.44   0.000679    3.43  0.000141  (-0.004458  0.005654  0.009449)
 76:   1505.26   0.005226   26.41  0.001083  (-0.030035  0.004490 -0.012696)
 77:   1557.63   0.128132  647.53  0.025671  ( 0.145520  0.041593  0.052579)
 78:   1580.13   0.001852    9.36  0.000366  (-0.018463  0.000020  0.004990)
 79:   1590.95   0.007179   36.28  0.001408  ( 0.031133  0.010189 -0.018303)
 80:   1626.32   0.091761  463.72  0.017607  ( 0.108159  0.059001  0.049276)
 81:   1662.64   0.076491  386.56  0.014357  ( 0.084732  0.082493  0.019292)
 82:   1754.37   0.083284  420.88  0.014814  (-0.009563  0.119471  0.021203)
 83:   1773.19   0.039770  200.98  0.006999  ( 0.072812 -0.036956  0.018217)
 84:   3058.97   0.007016   35.46  0.000716  (-0.021104 -0.015571  0.005290)
 85:   3064.17   0.005458   27.58  0.000556  ( 0.021994 -0.008146  0.002401)
 86:   3083.90   0.001788    9.04  0.000181  ( 0.006486  0.010653  0.005039)
 87:   3106.61   0.002057   10.39  0.000207  ( 0.014241  0.000226  0.001934)
 88:   3118.56   0.002311   11.68  0.000231  (-0.006215  0.011991 -0.006987)
 89:   3121.10   0.006125   30.95  0.000612  (-0.000625  0.023412 -0.007992)
 90:   3143.08   0.004025   20.34  0.000400  (-0.009540 -0.001076  0.017533)
 91:   3151.84   0.003873   19.57  0.000384  (-0.017856  0.001014 -0.007978)
 92:   3166.81   0.001076    5.44  0.000106  (-0.004773  0.003249  0.008527)
 93:   3175.44   0.002238   11.31  0.000220  ( 0.009004 -0.011321  0.003266)
 94:   3183.36   0.001472    7.44  0.000144  ( 0.001021  0.010775  0.005215)
 95:   3198.40   0.004433   22.40  0.000433  ( 0.001172  0.020646 -0.002221)
 96:   3526.28   0.037144  187.71  0.003287  (-0.000703 -0.040699 -0.040376)
 97:   3610.86   0.019843  100.28  0.001715  ( 0.032789 -0.025277 -0.000917)
 98:   3871.09   0.004615   23.32  0.000372  (-0.004464  0.016294 -0.009306)

--------------------------
THERMOCHEMISTRY AT 298.15K
--------------------------

Temperature         ... 298.15 K
Pressure            ... 1.00 atm
Total Mass          ... 251.26 AMU

Throughout the following assumptions are being made:
  (1) The electronic state is orbitally nondegenerate
  (2) There are no thermally accessible electronically excited states
  (3) Hindered rotations indicated by low frequency modes are not
      treated as such but are treated as vibrations and this may
      cause some error
  (4) All equations used are the standard statistical mechanics
      equations for an ideal gas
  (5) All vibrations are strictly harmonic

freq.      35.05  E(vib)   ...       0.54
freq.      47.75  E(vib)   ...       0.53
freq.      56.34  E(vib)   ...       0.52
freq.      64.34  E(vib)   ...       0.51
freq.      84.63  E(vib)   ...       0.48
freq.      91.41  E(vib)   ...       0.47
freq.     110.62  E(vib)   ...       0.45
freq.     114.30  E(vib)   ...       0.44
freq.     136.10  E(vib)   ...       0.42
freq.     145.34  E(vib)   ...       0.41
freq.     161.07  E(vib)   ...       0.39
freq.     232.12  E(vib)   ...       0.32
freq.     262.35  E(vib)   ...       0.29
freq.     279.63  E(vib)   ...       0.28
freq.     300.17  E(vib)   ...       0.26
freq.     312.48  E(vib)   ...       0.25
freq.     315.62  E(vib)   ...       0.25
freq.     335.75  E(vib)   ...       0.24
freq.     355.51  E(vib)   ...       0.22
freq.     379.78  E(vib)   ...       0.21
freq.     417.51  E(vib)   ...       0.18
freq.     459.87  E(vib)   ...       0.16
freq.     469.13  E(vib)   ...       0.16
freq.     510.19  E(vib)   ...       0.14
freq.     553.01  E(vib)   ...       0.12
freq.     563.74  E(vib)   ...       0.11
freq.     599.69  E(vib)   ...       0.10
freq.     621.10  E(vib)   ...       0.09
freq.     648.48  E(vib)   ...       0.08
freq.     665.48  E(vib)   ...       0.08
freq.     679.30  E(vib)   ...       0.08
freq.     725.51  E(vib)   ...       0.06
freq.     748.34  E(vib)   ...       0.06
freq.     753.77  E(vib)   ...       0.06
freq.     775.04  E(vib)   ...       0.05
freq.     821.40  E(vib)   ...       0.05
freq.     838.82  E(vib)   ...       0.04
freq.     863.48  E(vib)   ...       0.04
freq.     884.20  E(vib)   ...       0.04
freq.     948.43  E(vib)   ...       0.03
freq.     956.00  E(vib)   ...       0.03
freq.     976.85  E(vib)   ...       0.03
freq.    1008.67  E(vib)   ...       0.02
freq.    1031.03  E(vib)   ...       0.02
freq.    1040.17  E(vib)   ...       0.02
freq.    1058.16  E(vib)   ...       0.02
freq.    1093.50  E(vib)   ...       0.02
freq.    1126.09  E(vib)   ...       0.01
freq.    1147.87  E(vib)   ...       0.01
freq.    1164.14  E(vib)   ...       0.01
freq.    1168.12  E(vib)   ...       0.01
freq.    1185.75  E(vib)   ...       0.01
freq.    1197.54  E(vib)   ...       0.01
freq.    1202.25  E(vib)   ...       0.01
freq.    1251.03  E(vib)   ...       0.01
freq.    1259.15  E(vib)   ...       0.01
freq.    1286.32  E(vib)   ...       0.01
freq.    1296.50  E(vib)   ...       0.01
freq.    1317.01  E(vib)   ...       0.01
freq.    1344.04  E(vib)   ...       0.01
freq.    1358.67  E(vib)   ...       0.01
freq.    1385.11  E(vib)   ...       0.00
freq.    1408.20  E(vib)   ...       0.00
freq.    1448.97  E(vib)   ...       0.00
freq.    1452.71  E(vib)   ...       0.00
freq.    1474.04  E(vib)   ...       0.00
freq.    1481.94  E(vib)   ...       0.00
freq.    1487.40  E(vib)   ...       0.00
freq.    1489.56  E(vib)   ...       0.00
freq.    1502.44  E(vib)   ...       0.00
freq.    1505.26  E(vib)   ...       0.00
freq.    1557.63  E(vib)   ...       0.00
freq.    1580.13  E(vib)   ...       0.00
freq.    1590.95  E(vib)   ...       0.00
freq.    1626.32  E(vib)   ...       0.00
freq.    1662.64  E(vib)   ...       0.00
freq.    1754.37  E(vib)   ...       0.00
freq.    1773.19  E(vib)   ...       0.00
freq.    3058.97  E(vib)   ...       0.00
freq.    3064.17  E(vib)   ...       0.00
freq.    3083.90  E(vib)   ...       0.00
freq.    3106.61  E(vib)   ...       0.00
freq.    3118.56  E(vib)   ...       0.00
freq.    3121.10  E(vib)   ...       0.00
freq.    3143.08  E(vib)   ...       0.00
freq.    3151.84  E(vib)   ...       0.00
freq.    3166.81  E(vib)   ...       0.00
freq.    3175.44  E(vib)   ...       0.00
freq.    3183.36  E(vib)   ...       0.00
freq.    3198.40  E(vib)   ...       0.00
freq.    3526.28  E(vib)   ...       0.00
freq.    3610.86  E(vib)   ...       0.00
freq.    3871.09  E(vib)   ...       0.00

------------
INNER ENERGY
------------

The inner energy is: U= E(el) + E(ZPE) + E(vib) + E(rot) + E(trans)
    E(el)   - is the total energy from the electronic structure calculation
              = E(kin-el) + E(nuc-el) + E(el-el) + E(nuc-nuc)
    E(ZPE)  - the the zero temperature vibrational energy from the frequency calculation
    E(vib)  - the the finite temperature correction to E(ZPE) due to population
              of excited vibrational states
    E(rot)  - is the rotational thermal energy
    E(trans)- is the translational thermal energy

Summary of contributions to the inner energy U:
Electronic energy                ...   -876.78941340 Eh
Zero point energy                ...      0.26562758 Eh     166.68 kcal/mol
Thermal vibrational correction   ...      0.01521311 Eh       9.55 kcal/mol
Thermal rotational correction    ...      0.00141627 Eh       0.89 kcal/mol
Thermal translational correction ...      0.00141627 Eh       0.89 kcal/mol
-----------------------------------------------------------------------
Total thermal energy                   -876.50574017 Eh

Summary of corrections to the electronic energy:
(perhaps to be used in another calculation)
Total thermal correction                  0.01804565 Eh      11.32 kcal/mol
Non-thermal (ZPE) correction              0.26562758 Eh     166.68 kcal/mol
-----------------------------------------------------------------------
Total correction                          0.28367323 Eh     178.01 kcal/mol

--------
ENTHALPY
--------

The enthalpy is H = U + kB*T
                kB is Boltzmann's constant
Total free energy                 ...   -876.50574017 Eh
Thermal Enthalpy correction       ...      0.00094421 Eh       0.59 kcal/mol
-----------------------------------------------------------------------
Total Enthalpy                    ...   -876.50479596 Eh

Note: Only C1 symmetry has been detected, increase convergence thresholds
      if your molecule has a higher symmetry. Symmetry factor of 1.0 is
      used for the rotational entropy correction.

Note: Rotational entropy computed according to Herzberg
Infrared and Raman Spectra, Chapter V,1, Van Nostrand Reinhold, 1945

Rotational constants in cm-1:     0.028217     0.007726     0.006884

                             ****ORCA TERMINATED NORMALLY****
TOTAL RUN TIME: 0 days 0 hours 29 minutes 34 seconds 224 msec
