                         Program Version 5.0.4 -  RELEASE  -
|  1> ! M062X def2-TZVP OPT FREQ
|  2> %pal nprocs 16 end
|  3> *XYZFile 0 2 opt_EPRII.xyz
|  4>
|  5>                          ****END OF INPUT****
 Total Charge           Charge          ....    0
 Multiplicity           Mult            ....    2
 Number of Electrons    NEL             ....   49
FINAL SINGLE POINT ENERGY      -306.805123418474
FINAL SINGLE POINT ENERGY      -306.806849574584
FINAL SINGLE POINT ENERGY      -306.806891183690
                    ***********************HURRAY********************

CARTESIAN COORDINATES (ANGSTROEM)
---------------------------------
  H      0.000000   -1.639487    2.148309
  C      0.000000   -1.081446    1.220715
  C     -0.000000   -1.773168    0.000000
  H     -0.000000   -2.855324    0.000000
  C     -0.000000   -1.081446   -1.220716
  H      0.000000   -1.639487   -2.148309
  C      0.000000    0.286732   -1.235881
  H      0.000000    0.854492   -2.157237
  C     -0.000001    1.041358   -0.000000
  C     -0.000000    0.286732    1.235880
  H      0.000000    0.854492    2.157237
  O      0.000000    2.284504   -0.000000

 Multiplicity           Mult            ....    2
 Number of Electrons    NEL             ....   49
 Basis Dimension        Dim             ....  247

ORBITAL ENERGIES
----------------
                 SPIN UP ORBITALS
  NO   OCC          E(Eh)            E(eV)
   0   1.0000     -19.621278      -533.9221
   1   1.0000     -10.614835      -288.8444
   2   1.0000     -10.581331      -287.9327
   3   1.0000     -10.566416      -287.5268
   4   1.0000     -10.566377      -287.5257
   5   1.0000     -10.565421      -287.4997
   6   1.0000     -10.565413      -287.4995
   7   1.0000      -1.163148       -31.6509
   8   1.0000      -0.976219       -26.5643
   9   1.0000      -0.874146       -23.7867
  10   1.0000      -0.838302       -22.8113
  11   1.0000      -0.715040       -19.4572
  12   1.0000      -0.690546       -18.7907
  13   1.0000      -0.611318       -16.6348
  14   1.0000      -0.561191       -15.2708
  15   1.0000      -0.552751       -15.0411
  16   1.0000      -0.516450       -14.0533
  17   1.0000      -0.508806       -13.8453
  18   1.0000      -0.508376       -13.8336
  19   1.0000      -0.450506       -12.2589
  20   1.0000      -0.442323       -12.0362
  21   1.0000      -0.433605       -11.7990
  22   1.0000      -0.345124        -9.3913
  23   1.0000      -0.341396        -9.2899
  24   1.0000      -0.285181        -7.7602
  25   0.0000       0.000911         0.0248
  26   0.0000       0.022087         0.6010
  27   0.0000       0.071538         1.9466
  28   0.0000       0.098851         2.6899
  29   0.0000       0.110904         3.0179

                 SPIN DOWN ORBITALS
  NO   OCC          E(Eh)            E(eV)
   0   1.0000     -19.613755      -533.7174
   1   1.0000     -10.615813      -288.8710
   2   1.0000     -10.579046      -287.8705
   3   1.0000     -10.566829      -287.5380
   4   1.0000     -10.566788      -287.5369
   5   1.0000     -10.564357      -287.4708
   6   1.0000     -10.564339      -287.4703
   7   1.0000      -1.142848       -31.0985
   8   1.0000      -0.969367       -26.3778
   9   1.0000      -0.870953       -23.6998
  10   1.0000      -0.825590       -22.4655
  11   1.0000      -0.711170       -19.3519
  12   1.0000      -0.685892       -18.6641
  13   1.0000      -0.604735       -16.4557
  14   1.0000      -0.556434       -15.1413
  15   1.0000      -0.547059       -14.8862
  16   1.0000      -0.514642       -14.0041
  17   1.0000      -0.498378       -13.5615
  18   1.0000      -0.474688       -12.9169
  19   1.0000      -0.445769       -12.1300
  20   1.0000      -0.438008       -11.9188
  21   1.0000      -0.386924       -10.5287
  22   1.0000      -0.333872        -9.0851
  23   1.0000      -0.327438        -8.9100
  24   0.0000      -0.113951        -3.1008
  25   0.0000       0.016391         0.4460
  26   0.0000       0.053024         1.4429
  27   0.0000       0.072159         1.9636
  28   0.0000       0.099278         2.7015

MULLIKEN ATOMIC CHARGES AND SPIN POPULATIONS
--------------------------------------------
   0 H :    0.154970    0.002363
   1 C :   -0.143231   -0.196463
   2 C :   -0.089595    0.457668
   3 H :    0.159116   -0.012774
   4 C :   -0.143460   -0.196463
   5 H :    0.154926    0.002363
   6 C :   -0.159749    0.342112
   7 H :    0.161556   -0.008699
   8 C :    0.231430   -0.136163
   9 C :   -0.159939    0.342115
  10 H :    0.161486   -0.008699
  11 O :   -0.327510    0.412639
Sum of atomic charges         :    0.0000000

LOEWDIN ATOMIC CHARGES AND SPIN POPULATIONS
-------------------------------------------
   0 H :    0.149595   -0.000034
   1 C :   -0.145350   -0.028913
   2 C :   -0.091552    0.274099
   3 H :    0.148656   -0.001177
   4 C :   -0.145350   -0.028913
   5 H :    0.149595   -0.000034
   6 C :   -0.068835    0.196362
   7 H :    0.153517   -0.001538
   8 C :   -0.354185    0.034442
   9 C :   -0.068835    0.196363
  10 H :    0.153517   -0.001538
  11 O :    0.119227    0.360883

  Mayer bond orders larger than 0.100000
B(  0-H ,  1-C ) :   0.9376 B(  1-C ,  2-C ) :   1.3252 B(  1-C ,  9-C ) :   1.5007
B(  2-C ,  3-H ) :   0.9545 B(  2-C ,  4-C ) :   1.3251 B(  4-C ,  5-H ) :   0.9377
B(  4-C ,  6-C ) :   1.5009 B(  6-C ,  7-H ) :   0.9463 B(  6-C ,  8-C ) :   1.1766
B(  8-C ,  9-C ) :   1.1765 B(  8-C , 11-O ) :   1.7305 B(  9-C , 10-H ) :   0.9465

FINAL SINGLE POINT ENERGY      -306.806895105109

DIPOLE MOMENT
-------------
                                X             Y             Z
Electronic contribution:     -0.00000       2.76864      -0.00000
Nuclear contribution   :      0.00000      -4.33065       0.00000
                        -----------------------------------------
Total Dipole Moment    :     -0.00000      -1.56201      -0.00000
                        -----------------------------------------
Magnitude (a.u.)       :      1.56201
Magnitude (Debye)      :      3.97032

VIBRATIONAL FREQUENCIES
-----------------------

Scaling factor for frequencies =  1.000000000  (already applied!)

   0:         0.00 cm**-1
   1:         0.00 cm**-1
   2:         0.00 cm**-1
   3:         0.00 cm**-1
   4:         0.00 cm**-1
   5:         0.00 cm**-1
   6:       192.71 cm**-1
   7:       383.43 cm**-1
   8:       450.68 cm**-1
   9:       486.39 cm**-1
  10:       531.61 cm**-1
  11:       597.94 cm**-1
  12:       656.06 cm**-1
  13:       813.58 cm**-1
  14:       817.23 cm**-1
  15:       819.30 cm**-1
  16:       949.35 cm**-1
  17:       986.95 cm**-1
  18:      1006.13 cm**-1
  19:      1014.22 cm**-1
  20:      1026.16 cm**-1
  21:      1102.62 cm**-1
  22:      1160.54 cm**-1
  23:      1167.35 cm**-1
  24:      1291.56 cm**-1
  25:      1336.70 cm**-1
  26:      1439.52 cm**-1
  27:      1458.23 cm**-1
  28:      1506.71 cm**-1
  29:      1576.60 cm**-1
  30:      1617.08 cm**-1
  31:      3211.38 cm**-1
  32:      3218.62 cm**-1
  33:      3228.37 cm**-1
  34:      3236.35 cm**-1
  35:      3239.33 cm**-1

IR SPECTRUM
-----------

 Mode   freq       eps      Int      T**2         TX        TY        TZ
       cm**-1   L/(mol*cm) km/mol    a.u.
----------------------------------------------------------------------------
  6:    192.71   0.000508    2.57  0.000823  (-0.028684 -0.000001  0.000000)
  7:    383.43   0.000000    0.00  0.000000  ( 0.000002  0.000010  0.000013)
  8:    450.68   0.000818    4.13  0.000566  ( 0.000000 -0.000001  0.023794)
  9:    486.39   0.000126    0.63  0.000081  (-0.008978  0.000032 -0.000002)
 10:    531.61   0.000469    2.37  0.000275  ( 0.000002  0.016590  0.000000)
 11:    597.94   0.000216    1.09  0.000113  ( 0.000000 -0.000003  0.010618)
 12:    656.06   0.008519   43.05  0.004052  ( 0.063656 -0.000003  0.000002)
 13:    813.58   0.008699   43.96  0.003337  ( 0.057764 -0.000006  0.000002)
 14:    817.23   0.000000    0.00  0.000000  (-0.000074 -0.000013 -0.000003)
 15:    819.30   0.000609    3.08  0.000232  (-0.000021  0.015226 -0.000000)
 16:    949.35   0.001538    7.77  0.000505  ( 0.022483 -0.000007 -0.000000)
 17:    986.95   0.000346    1.75  0.000110  (-0.000002 -0.010466  0.000000)
 18:   1006.13   0.000000    0.00  0.000000  ( 0.000004  0.000003  0.000007)
 19:   1014.22   0.000060    0.30  0.000018  ( 0.004284 -0.000032  0.000003)
 20:   1026.16   0.000014    0.07  0.000004  (-0.000003  0.002073  0.000000)
 21:   1102.62   0.001407    7.11  0.000398  ( 0.000000 -0.000002  0.019955)
 22:   1160.54   0.001106    5.59  0.000297  (-0.000000 -0.000003  0.017246)
 23:   1167.35   0.000202    1.02  0.000054  (-0.000000  0.007341  0.000001)
 24:   1291.56   0.001589    8.03  0.000384  (-0.000000  0.000001 -0.019593)
 25:   1336.70   0.001559    7.88  0.000364  ( 0.000000  0.000003 -0.019078)
 26:   1439.52   0.000357    1.80  0.000077  ( 0.000000  0.008798  0.000000)
 27:   1458.23   0.000787    3.98  0.000168  ( 0.000000 -0.000000 -0.012975)
 28:   1506.71   0.002918   14.75  0.000604  (-0.000001 -0.024585  0.000001)
 29:   1576.60   0.000624    3.15  0.000124  ( 0.000000 -0.000004 -0.011114)
 30:   1617.08   0.013123   66.32  0.002533  (-0.000000 -0.050324  0.000000)
 31:   3211.38   0.000005    0.03  0.000001  (-0.000000 -0.000726 -0.000001)
 32:   3218.62   0.000640    3.24  0.000062  (-0.000000 -0.000000  0.007880)
 33:   3228.37   0.000836    4.22  0.000081  (-0.000000  0.008987 -0.000000)
 34:   3236.35   0.000309    1.56  0.000030  (-0.000000  0.000001  0.005459)
 35:   3239.33   0.000209    1.06  0.000020  ( 0.000000  0.004489 -0.000000)

--------------------------
THERMOCHEMISTRY AT 298.15K
--------------------------

Temperature         ... 298.15 K
Pressure            ... 1.00 atm
Total Mass          ... 93.10 AMU

Throughout the following assumptions are being made:
  (1) The electronic state is orbitally nondegenerate
      but the spin degeneracy is treated
  (2) There are no thermally accessible electronically excited states
  (3) Hindered rotations indicated by low frequency modes are not
      treated as such but are treated as vibrations and this may
      cause some error
  (4) All equations used are the standard statistical mechanics
      equations for an ideal gas
  (5) All vibrations are strictly harmonic

freq.     192.71  E(vib)   ...       0.36
freq.     383.43  E(vib)   ...       0.20
freq.     450.68  E(vib)   ...       0.17
freq.     486.39  E(vib)   ...       0.15
freq.     531.61  E(vib)   ...       0.13
freq.     597.94  E(vib)   ...       0.10
freq.     656.06  E(vib)   ...       0.08
freq.     813.58  E(vib)   ...       0.05
freq.     817.23  E(vib)   ...       0.05
freq.     819.30  E(vib)   ...       0.05
freq.     949.35  E(vib)   ...       0.03
freq.     986.95  E(vib)   ...       0.02
freq.    1006.13  E(vib)   ...       0.02
freq.    1014.22  E(vib)   ...       0.02
freq.    1026.16  E(vib)   ...       0.02
freq.    1102.62  E(vib)   ...       0.02
freq.    1160.54  E(vib)   ...       0.01
freq.    1167.35  E(vib)   ...       0.01
freq.    1291.56  E(vib)   ...       0.01
freq.    1336.70  E(vib)   ...       0.01
freq.    1439.52  E(vib)   ...       0.00
freq.    1458.23  E(vib)   ...       0.00
freq.    1506.71  E(vib)   ...       0.00
freq.    1576.60  E(vib)   ...       0.00
freq.    1617.08  E(vib)   ...       0.00
freq.    3211.38  E(vib)   ...       0.00
freq.    3218.62  E(vib)   ...       0.00
freq.    3228.37  E(vib)   ...       0.00
freq.    3236.35  E(vib)   ...       0.00
freq.    3239.33  E(vib)   ...       0.00

------------
INNER ENERGY
------------

The inner energy is: U= E(el) + E(ZPE) + E(vib) + E(rot) + E(trans)
    E(el)   - is the total energy from the electronic structure calculation
              = E(kin-el) + E(nuc-el) + E(el-el) + E(nuc-nuc)
    E(ZPE)  - the the zero temperature vibrational energy from the frequency calculation
    E(vib)  - the the finite temperature correction to E(ZPE) due to population
              of excited vibrational states
    E(rot)  - is the rotational thermal energy
    E(trans)- is the translational thermal energy

Summary of contributions to the inner energy U:
Electronic energy                ...   -306.80689511 Eh
Zero point energy                ...      0.09231752 Eh      57.93 kcal/mol
Thermal vibrational correction   ...      0.00240727 Eh       1.51 kcal/mol
Thermal rotational correction    ...      0.00141627 Eh       0.89 kcal/mol
Thermal translational correction ...      0.00141627 Eh       0.89 kcal/mol
-----------------------------------------------------------------------
Total thermal energy                   -306.70933777 Eh

Summary of corrections to the electronic energy:
(perhaps to be used in another calculation)
Total thermal correction                  0.00523982 Eh       3.29 kcal/mol
Non-thermal (ZPE) correction              0.09231752 Eh      57.93 kcal/mol
-----------------------------------------------------------------------
Total correction                          0.09755734 Eh      61.22 kcal/mol

--------
ENTHALPY
--------

The enthalpy is H = U + kB*T
                kB is Boltzmann's constant
Total free energy                 ...   -306.70933777 Eh
Thermal Enthalpy correction       ...      0.00094421 Eh       0.59 kcal/mol
-----------------------------------------------------------------------
Total Enthalpy                    ...   -306.70839356 Eh

Note: Rotational entropy computed according to Herzberg
Infrared and Raman Spectra, Chapter V,1, Van Nostrand Reinhold, 1945
Point Group:  C2v, Symmetry Number:   2
Rotational constants in cm-1:     0.184896     0.094032     0.062332

Vibrational entropy computed according to the QRRHO of S. Grimme
Chem.Eur.J. 2012 18 9955

-------
ENTROPY
-------

The entropy contributions are T*S = T*(S(el)+S(vib)+S(rot)+S(trans))
     S(el)   - electronic entropy
     S(vib)  - vibrational entropy
     S(rot)  - rotational entropy
     S(trans)- translational entropy
The entropies will be listed as multiplied by the temperature to get
units of energy

Electronic entropy                ...      0.00065446 Eh      0.41 kcal/mol
Vibrational entropy               ...      0.00353787 Eh      2.22 kcal/mol
Rotational entropy                ...      0.01207948 Eh      7.58 kcal/mol
Translational entropy             ...      0.01877006 Eh     11.78 kcal/mol
-----------------------------------------------------------------------
Final entropy term                ...      0.03504187 Eh     21.99 kcal/mol

In case the symmetry of your molecule has not been determined correctly
or in case you have a reason to use a different symmetry number we print
out the resulting rotational entropy values for sn=1,12 :
 --------------------------------------------------------
|  sn= 1 | S(rot)=       0.01273394 Eh      7.99 kcal/mol|
|  sn= 2 | S(rot)=       0.01207948 Eh      7.58 kcal/mol|
|  sn= 3 | S(rot)=       0.01169665 Eh      7.34 kcal/mol|
|  sn= 4 | S(rot)=       0.01142503 Eh      7.17 kcal/mol|
|  sn= 5 | S(rot)=       0.01121434 Eh      7.04 kcal/mol|
|  sn= 6 | S(rot)=       0.01104220 Eh      6.93 kcal/mol|
|  sn= 7 | S(rot)=       0.01089665 Eh      6.84 kcal/mol|
|  sn= 8 | S(rot)=       0.01077057 Eh      6.76 kcal/mol|
|  sn= 9 | S(rot)=       0.01065936 Eh      6.69 kcal/mol|
|  sn=10 | S(rot)=       0.01055988 Eh      6.63 kcal/mol|
|  sn=11 | S(rot)=       0.01046989 Eh      6.57 kcal/mol|
|  sn=12 | S(rot)=       0.01038774 Eh      6.52 kcal/mol|
 --------------------------------------------------------

-------------------
GIBBS FREE ENERGY
-------------------

The Gibbs free energy is G = H - T*S

Total enthalpy                    ...   -306.70839356 Eh
Total entropy correction          ...     -0.03504187 Eh    -21.99 kcal/mol
-----------------------------------------------------------------------
Final Gibbs free energy         ...   -306.74343543 Eh

For completeness - the Gibbs free energy minus the electronic energy
G-E(el)                           ...      0.06345968 Eh     39.82 kcal/mol

                             ****ORCA TERMINATED NORMALLY****
TOTAL RUN TIME: 0 days 0 hours 5 minutes 48 seconds 60 msec
