                         Program Version 5.0.4 -  RELEASE  -
|  1> ! M062X def2-TZVP OPT FREQ
|  2> %pal nprocs 16 end
|  3> *XYZFile 0 1 opt_EPRII.xyz
|  4>
|  5>                          ****END OF INPUT****
 Total Charge           Charge          ....    0
 Multiplicity           Mult            ....    1
 Number of Electrons    NEL             ....   50
FINAL SINGLE POINT ENERGY      -307.456134409120
FINAL SINGLE POINT ENERGY      -307.457846276969
FINAL SINGLE POINT ENERGY      -307.457884696015
FINAL SINGLE POINT ENERGY      -307.457887670708
FINAL SINGLE POINT ENERGY      -307.457888735654
                    ***********************HURRAY********************

CARTESIAN COORDINATES (ANGSTROEM)
---------------------------------
  H      1.500519    0.165832    2.066122
  C      0.962650    0.092299    1.129666
  C      1.656848    0.009246   -0.067818
  H      2.738269    0.017337   -0.073880
  C      0.947722   -0.084682   -1.259535
  H      1.479129   -0.149595   -2.200476
  C     -0.437432   -0.096093   -1.260678
  H     -1.002925   -0.167386   -2.180160
  C     -1.124787   -0.013455   -0.055094
  C     -0.425384    0.081628    1.141762
  H     -0.966691    0.146030    2.079329
  O     -2.484699   -0.029991   -0.105057
  H     -2.842217    0.027830    0.785819

 Multiplicity           Mult            ....    1
 Number of Electrons    NEL             ....   50
 Basis Dimension        Dim             ....  253

ORBITAL ENERGIES
----------------

  NO   OCC          E(Eh)            E(eV)
   0   2.0000     -19.656747      -534.8873
   1   2.0000     -10.604533      -288.5640
   2   2.0000     -10.545296      -286.9521
   3   2.0000     -10.543396      -286.9004
   4   2.0000     -10.542315      -286.8710
   5   2.0000     -10.536520      -286.7133
   6   2.0000     -10.534587      -286.6607
   7   2.0000      -1.189428       -32.3660
   8   2.0000      -0.959581       -26.1115
   9   2.0000      -0.849046       -23.1037
  10   2.0000      -0.837152       -22.7801
  11   2.0000      -0.712545       -19.3893
  12   2.0000      -0.688732       -18.7414
  13   2.0000      -0.625290       -17.0150
  14   2.0000      -0.576471       -15.6866
  15   2.0000      -0.543376       -14.7860
  16   2.0000      -0.508477       -13.8364
  17   2.0000      -0.497588       -13.5401
  18   2.0000      -0.492471       -13.4008
  19   2.0000      -0.466432       -12.6922
  20   2.0000      -0.423912       -11.5352
  21   2.0000      -0.414968       -11.2919
  22   2.0000      -0.401757       -10.9324
  23   2.0000      -0.312697        -8.5089
  24   2.0000      -0.282544        -7.6884
  25   0.0000       0.019730         0.5369
  26   0.0000       0.037571         1.0224
  27   0.0000       0.060610         1.6493
  28   0.0000       0.085909         2.3377
  29   0.0000       0.111266         3.0277

MULLIKEN ATOMIC CHARGES
-----------------------
   0 H :    0.142295
   1 C :   -0.152127
   2 C :   -0.172789
   3 H :    0.139122
   4 C :   -0.121356
   5 H :    0.141606
   6 C :   -0.201124
   7 H :    0.151788
   8 C :    0.259802
   9 C :   -0.212772
  10 H :    0.134853
  11 O :   -0.429397
  12 H :    0.320098
Sum of atomic charges:   -0.0000000

LOEWDIN ATOMIC CHARGES
----------------------
   0 H :    0.145781
   1 C :   -0.142004
   2 C :   -0.162677
   3 H :    0.143480
   4 C :   -0.138060
   5 H :    0.146219
   6 C :   -0.122363
   7 H :    0.151011
   8 C :   -0.277848
   9 C :   -0.149136
  10 H :    0.143130
  11 O :    0.075620
  12 H :    0.186846

  Mayer bond orders larger than 0.100000
B(  0-H ,  1-C ) :   0.9399 B(  1-C ,  2-C ) :   1.4602 B(  1-C ,  9-C ) :   1.4328
B(  2-C ,  3-H ) :   0.9510 B(  2-C ,  4-C ) :   1.4384 B(  4-C ,  5-H ) :   0.9513
B(  4-C ,  6-C ) :   1.4683 B(  6-C ,  7-H ) :   0.9411 B(  6-C ,  8-C ) :   1.4211
B(  8-C ,  9-C ) :   1.3978 B(  8-C , 11-O ) :   1.0875 B(  9-C , 10-H ) :   0.9308
B( 11-O , 12-H ) :   0.8867

FINAL SINGLE POINT ENERGY      -307.457888786837

DIPOLE MOMENT
-------------
                                X             Y             Z
Electronic contribution:     -1.98601      -0.03532      -0.25922
Nuclear contribution   :      2.00470       0.07145       0.78543
                        -----------------------------------------
Total Dipole Moment    :      0.01869       0.03612       0.52621
                        -----------------------------------------
Magnitude (a.u.)       :      0.52778
Magnitude (Debye)      :      1.34152

VIBRATIONAL FREQUENCIES
-----------------------

Scaling factor for frequencies =  1.000000000  (already applied!)

   0:         0.00 cm**-1
   1:         0.00 cm**-1
   2:         0.00 cm**-1
   3:         0.00 cm**-1
   4:         0.00 cm**-1
   5:         0.00 cm**-1
   6:       234.70 cm**-1
   7:       343.00 cm**-1
   8:       413.25 cm**-1
   9:       423.17 cm**-1
  10:       518.76 cm**-1
  11:       538.83 cm**-1
  12:       633.02 cm**-1
  13:       707.50 cm**-1
  14:       777.51 cm**-1
  15:       840.86 cm**-1
  16:       843.72 cm**-1
  17:       913.78 cm**-1
  18:       977.93 cm**-1
  19:       997.76 cm**-1
  20:      1021.11 cm**-1
  21:      1059.67 cm**-1
  22:      1106.41 cm**-1
  23:      1171.82 cm**-1
  24:      1193.73 cm**-1
  25:      1201.54 cm**-1
  26:      1313.69 cm**-1
  27:      1343.40 cm**-1
  28:      1371.11 cm**-1
  29:      1518.12 cm**-1
  30:      1550.89 cm**-1
  31:      1675.79 cm**-1
  32:      1686.04 cm**-1
  33:      3194.56 cm**-1
  34:      3213.27 cm**-1
  35:      3221.53 cm**-1
  36:      3233.69 cm**-1
  37:      3239.95 cm**-1
  38:      3876.64 cm**-1

IR SPECTRUM
-----------

 Mode   freq       eps      Int      T**2         TX        TY        TZ
       cm**-1   L/(mol*cm) km/mol    a.u.
----------------------------------------------------------------------------
  6:    234.70   0.000260    1.31  0.000346  ( 0.000163 -0.018551  0.001349)
  7:    343.00   0.021062  106.44  0.019162  (-0.002713  0.138075 -0.009496)
  8:    413.25   0.001967    9.94  0.001486  ( 0.038474  0.001146 -0.002055)
  9:    423.17   0.000089    0.45  0.000066  ( 0.000562 -0.008076  0.000495)
 10:    518.76   0.002874   14.52  0.001729  (-0.000586  0.041499 -0.002501)
 11:    538.83   0.000292    1.48  0.000169  ( 0.012575  0.000240  0.003301)
 12:    633.02   0.000075    0.38  0.000037  (-0.003094 -0.000609 -0.005186)
 13:    707.50   0.005254   26.55  0.002317  ( 0.000565 -0.048025  0.003264)
 14:    777.51   0.012387   62.60  0.004972  ( 0.000600 -0.070356  0.004634)
 15:    840.86   0.000452    2.29  0.000168  ( 0.012949 -0.000418 -0.000166)
 16:    843.72   0.003381   17.09  0.001251  ( 0.035352  0.000617 -0.000595)
 17:    913.78   0.001239    6.26  0.000423  (-0.000228  0.020530 -0.001294)
 18:    977.93   0.000015    0.07  0.000005  (-0.000358 -0.002143  0.000076)
 19:    997.76   0.000034    0.17  0.000011  ( 0.000476  0.003169 -0.000645)
 20:   1021.11   0.000141    0.71  0.000043  (-0.006389 -0.000090 -0.001543)
 21:   1059.67   0.001117    5.65  0.000329  ( 0.018136  0.000373  0.000025)
 22:   1106.41   0.002050   10.36  0.000578  (-0.015008  0.000344  0.018787)
 23:   1171.82   0.004013   20.28  0.001069  ( 0.031202  0.000724  0.009728)
 24:   1193.73   0.000235    1.19  0.000061  (-0.006633  0.000310  0.004162)
 25:   1201.54   0.024241  122.51  0.006296  ( 0.079218  0.001408  0.004295)
 26:   1313.69   0.018400   92.99  0.004371  ( 0.066077  0.000492 -0.002123)
 27:   1343.40   0.002526   12.77  0.000587  (-0.019867  0.001141  0.013814)
 28:   1371.11   0.005593   28.26  0.001273  ( 0.035639  0.000408  0.001622)
 29:   1518.12   0.004677   23.64  0.000961  ( 0.030043 -0.000105 -0.007669)
 30:   1550.89   0.014444   72.99  0.002906  (-0.053839 -0.000666 -0.002701)
 31:   1675.79   0.008181   41.34  0.001523  ( 0.036351  0.001422  0.014145)
 32:   1686.04   0.010153   51.31  0.001879  ( 0.042224 -0.000303 -0.009809)
 33:   3194.56   0.001555    7.86  0.000152  ( 0.011593 -0.000207 -0.004179)
 34:   3213.27   0.000070    0.36  0.000007  (-0.001070  0.000159  0.002383)
 35:   3221.53   0.001396    7.06  0.000135  (-0.003745  0.000837  0.010979)
 36:   3233.69   0.000877    4.43  0.000085  (-0.006970 -0.000569 -0.005980)
 37:   3239.95   0.000395    2.00  0.000038  ( 0.005922 -0.000106 -0.001726)
 38:   3876.64   0.015319   77.42  0.001233  ( 0.026855 -0.001268 -0.022592)

--------------------------
THERMOCHEMISTRY AT 298.15K
--------------------------

Temperature         ... 298.15 K
Pressure            ... 1.00 atm
Total Mass          ... 94.11 AMU

Throughout the following assumptions are being made:
  (1) The electronic state is orbitally nondegenerate
  (2) There are no thermally accessible electronically excited states
  (3) Hindered rotations indicated by low frequency modes are not
      treated as such but are treated as vibrations and this may
      cause some error
  (4) All equations used are the standard statistical mechanics
      equations for an ideal gas
  (5) All vibrations are strictly harmonic

freq.     234.70  E(vib)   ...       0.32
freq.     343.00  E(vib)   ...       0.23
freq.     413.25  E(vib)   ...       0.19
freq.     423.17  E(vib)   ...       0.18
freq.     518.76  E(vib)   ...       0.13
freq.     538.83  E(vib)   ...       0.12
freq.     633.02  E(vib)   ...       0.09
freq.     707.50  E(vib)   ...       0.07
freq.     777.51  E(vib)   ...       0.05
freq.     840.86  E(vib)   ...       0.04
freq.     843.72  E(vib)   ...       0.04
freq.     913.78  E(vib)   ...       0.03
freq.     977.93  E(vib)   ...       0.03
freq.     997.76  E(vib)   ...       0.02
freq.    1021.11  E(vib)   ...       0.02
freq.    1059.67  E(vib)   ...       0.02
freq.    1106.41  E(vib)   ...       0.02
freq.    1171.82  E(vib)   ...       0.01
freq.    1193.73  E(vib)   ...       0.01
freq.    1201.54  E(vib)   ...       0.01
freq.    1313.69  E(vib)   ...       0.01
freq.    1343.40  E(vib)   ...       0.01
freq.    1371.11  E(vib)   ...       0.01
freq.    1518.12  E(vib)   ...       0.00
freq.    1550.89  E(vib)   ...       0.00
freq.    1675.79  E(vib)   ...       0.00
freq.    1686.04  E(vib)   ...       0.00
freq.    3194.56  E(vib)   ...       0.00
freq.    3213.27  E(vib)   ...       0.00
freq.    3221.53  E(vib)   ...       0.00
freq.    3233.69  E(vib)   ...       0.00
freq.    3239.95  E(vib)   ...       0.00
freq.    3876.64  E(vib)   ...       0.00

------------
INNER ENERGY
------------

The inner energy is: U= E(el) + E(ZPE) + E(vib) + E(rot) + E(trans)
    E(el)   - is the total energy from the electronic structure calculation
              = E(kin-el) + E(nuc-el) + E(el-el) + E(nuc-nuc)
    E(ZPE)  - the the zero temperature vibrational energy from the frequency calculation
    E(vib)  - the the finite temperature correction to E(ZPE) due to population
              of excited vibrational states
    E(rot)  - is the rotational thermal energy
    E(trans)- is the translational thermal energy

Summary of contributions to the inner energy U:
Electronic energy                ...   -307.45788879 Eh
Zero point energy                ...      0.10560845 Eh      66.27 kcal/mol
Thermal vibrational correction   ...      0.00265099 Eh       1.66 kcal/mol
Thermal rotational correction    ...      0.00141627 Eh       0.89 kcal/mol
Thermal translational correction ...      0.00141627 Eh       0.89 kcal/mol
-----------------------------------------------------------------------
Total thermal energy                   -307.34679680 Eh

Summary of corrections to the electronic energy:
(perhaps to be used in another calculation)
Total thermal correction                  0.00548353 Eh       3.44 kcal/mol
Non-thermal (ZPE) correction              0.10560845 Eh      66.27 kcal/mol
-----------------------------------------------------------------------
Total correction                          0.11109198 Eh      69.71 kcal/mol

--------
ENTHALPY
--------

The enthalpy is H = U + kB*T
                kB is Boltzmann's constant
Total free energy                 ...   -307.34679680 Eh
Thermal Enthalpy correction       ...      0.00094421 Eh       0.59 kcal/mol
-----------------------------------------------------------------------
Total Enthalpy                    ...   -307.34585260 Eh

Note: Only C1 symmetry has been detected, increase convergence thresholds
      if your molecule has a higher symmetry. Symmetry factor of 1.0 is
      used for the rotational entropy correction.

Note: Rotational entropy computed according to Herzberg
Infrared and Raman Spectra, Chapter V,1, Van Nostrand Reinhold, 1945
Point Group:  C1, Symmetry Number:   1
Rotational constants in cm-1:     0.190491     0.088128     0.060253

Vibrational entropy computed according to the QRRHO of S. Grimme
Chem.Eur.J. 2012 18 9955

-------
ENTROPY
-------

The entropy contributions are T*S = T*(S(el)+S(vib)+S(rot)+S(trans))
     S(el)   - electronic entropy
     S(vib)  - vibrational entropy
     S(rot)  - rotational entropy
     S(trans)- translational entropy
The entropies will be listed as multiplied by the temperature to get
units of energy

Electronic entropy                ...      0.00000000 Eh      0.00 kcal/mol
Vibrational entropy               ...      0.00384058 Eh      2.41 kcal/mol
Rotational entropy                ...      0.01276650 Eh      8.01 kcal/mol
Translational entropy             ...      0.01878531 Eh     11.79 kcal/mol
-----------------------------------------------------------------------
Final entropy term                ...      0.03539239 Eh     22.21 kcal/mol

In case the symmetry of your molecule has not been determined correctly
or in case you have a reason to use a different symmetry number we print
out the resulting rotational entropy values for sn=1,12 :
 --------------------------------------------------------
|  sn= 1 | S(rot)=       0.01276650 Eh      8.01 kcal/mol|
|  sn= 2 | S(rot)=       0.01211204 Eh      7.60 kcal/mol|
|  sn= 3 | S(rot)=       0.01172921 Eh      7.36 kcal/mol|
|  sn= 4 | S(rot)=       0.01145759 Eh      7.19 kcal/mol|
|  sn= 5 | S(rot)=       0.01124690 Eh      7.06 kcal/mol|
|  sn= 6 | S(rot)=       0.01107475 Eh      6.95 kcal/mol|
|  sn= 7 | S(rot)=       0.01092921 Eh      6.86 kcal/mol|
|  sn= 8 | S(rot)=       0.01080313 Eh      6.78 kcal/mol|
|  sn= 9 | S(rot)=       0.01069192 Eh      6.71 kcal/mol|
|  sn=10 | S(rot)=       0.01059244 Eh      6.65 kcal/mol|
|  sn=11 | S(rot)=       0.01050245 Eh      6.59 kcal/mol|
|  sn=12 | S(rot)=       0.01042030 Eh      6.54 kcal/mol|
 --------------------------------------------------------

-------------------
GIBBS FREE ENERGY
-------------------

The Gibbs free energy is G = H - T*S

Total enthalpy                    ...   -307.34585260 Eh
Total entropy correction          ...     -0.03539239 Eh    -22.21 kcal/mol
-----------------------------------------------------------------------
Final Gibbs free energy         ...   -307.38124499 Eh

For completeness - the Gibbs free energy minus the electronic energy
G-E(el)                           ...      0.07664380 Eh     48.09 kcal/mol

                             ****ORCA TERMINATED NORMALLY****
TOTAL RUN TIME: 0 days 0 hours 4 minutes 57 seconds 540 msec
