                         Program Version 5.0.4 -  RELEASE  -
|  1> ! M062X def2-TZVP OPT FREQ
|  2> %pal nprocs 16 end
|  3> *XYZFile 0 1 opt_EPRII.xyz
|  4>
|  5>                          ****END OF INPUT****
 Total Charge           Charge          ....    0
 Multiplicity           Mult            ....    1
 Number of Electrons    NEL             ....   74
FINAL SINGLE POINT ENERGY      -441.332191446847
FINAL SINGLE POINT ENERGY      -441.358064314619
FINAL SINGLE POINT ENERGY      -441.371380437794
FINAL SINGLE POINT ENERGY      -441.377853775808
FINAL SINGLE POINT ENERGY      -441.381437422022
FINAL SINGLE POINT ENERGY      -441.383767631845
FINAL SINGLE POINT ENERGY      -441.385428725878
FINAL SINGLE POINT ENERGY      -441.386730227309
FINAL SINGLE POINT ENERGY      -441.387742733243
FINAL SINGLE POINT ENERGY      -441.388478955667
FINAL SINGLE POINT ENERGY      -441.388704978188
FINAL SINGLE POINT ENERGY      -441.388743861814
FINAL SINGLE POINT ENERGY      -441.388770869544
FINAL SINGLE POINT ENERGY      -441.388783183186
FINAL SINGLE POINT ENERGY      -441.388786998581
FINAL SINGLE POINT ENERGY      -441.388789042789
                    ***********************HURRAY********************

CARTESIAN COORDINATES (ANGSTROEM)
---------------------------------
  N     -1.710735   -0.039673    0.087499
  C     -3.148247   -0.061835   -0.077838
  C     -1.042234    1.162808    0.090837
  C      0.300342    1.227162    0.029913
  O      0.886459    2.457016    0.036509
  H      1.770057    2.365735    0.411574
  C      1.129869    0.032462   -0.042965
  C      2.476452    0.088706   -0.138204
  C      0.372388   -1.212938    0.004261
  C      1.114588   -2.511087   -0.023564
  C     -0.977781   -1.190418    0.043458
  H     -3.437641    0.060604   -1.125321
  H     -3.538073   -1.010117    0.287144
  H     -3.596347    0.741937    0.505467
  H     -1.642840    2.058919    0.153381
  H      3.076148   -0.808664   -0.153558
  H      3.009690    1.021890   -0.254577
  H      1.795729   -2.587336    0.828302
  H      0.432066   -3.359659    0.003882
  H      1.724566   -2.586256   -0.927871
  H     -1.556657   -2.105457    0.045271

 Multiplicity           Mult            ....    1
 Number of Electrons    NEL             ....   74
 Basis Dimension        Dim             ....  376

ORBITAL ENERGIES
----------------

  NO   OCC          E(Eh)            E(eV)
   0   2.0000     -19.642382      -534.4964
   1   2.0000     -14.797502      -402.6605
   2   2.0000     -10.589552      -288.1564
   3   2.0000     -10.585827      -288.0550
   4   2.0000     -10.575758      -287.7810
   5   2.0000     -10.567967      -287.5690
   6   2.0000     -10.545465      -286.9567
   7   2.0000     -10.538660      -286.7715
   8   2.0000     -10.527186      -286.4593
   9   2.0000     -10.503832      -285.8238
  10   2.0000      -1.175620       -31.9903
  11   2.0000      -1.094724       -29.7890
  12   2.0000      -0.929188       -25.2845
  13   2.0000      -0.873101       -23.7583
  14   2.0000      -0.839848       -22.8534
  15   2.0000      -0.803523       -21.8650
  16   2.0000      -0.759092       -20.6559
  17   2.0000      -0.698170       -18.9982
  18   2.0000      -0.671076       -18.2609
  19   2.0000      -0.614388       -16.7184
  20   2.0000      -0.597406       -16.2563
  21   2.0000      -0.573974       -15.6186
  22   2.0000      -0.548670       -14.9301
  23   2.0000      -0.525756       -14.3065
  24   2.0000      -0.500271       -13.6131
  25   2.0000      -0.493349       -13.4247
  26   2.0000      -0.489336       -13.3155
  27   2.0000      -0.482357       -13.1256
  28   2.0000      -0.472048       -12.8451
  29   2.0000      -0.461120       -12.5477
  30   2.0000      -0.439833       -11.9685
  31   2.0000      -0.428955       -11.6725
  32   2.0000      -0.417175       -11.3519
  33   2.0000      -0.388518       -10.5721
  34   2.0000      -0.350940        -9.5496
  35   2.0000      -0.302701        -8.2369
  36   2.0000      -0.213686        -5.8147
  37   0.0000       0.026381         0.7179
  38   0.0000       0.041684         1.1343
  39   0.0000       0.064627         1.7586
  40   0.0000       0.077370         2.1054
  41   0.0000       0.090747         2.4694

MULLIKEN ATOMIC CHARGES
-----------------------
   0 N :   -0.091072
   1 C :   -0.319296
   2 C :   -0.087459
   3 C :    0.111174
   4 O :   -0.446021
   5 H :    0.319101
   6 C :    0.143199
   7 C :   -0.470014
   8 C :   -0.024261
   9 C :   -0.536936
  10 C :   -0.033597
  11 H :    0.156981
  12 H :    0.144993
  13 H :    0.150802
  14 H :    0.157986
  15 H :    0.131612
  16 H :    0.095611
  17 H :    0.163835
  18 H :    0.126095
  19 H :    0.163619
  20 H :    0.143650
Sum of atomic charges:   -0.0000000

LOEWDIN ATOMIC CHARGES
----------------------
   0 N :    0.193238
   1 C :   -0.272109
   2 C :   -0.170433
   3 C :   -0.264240
   4 O :    0.072697
   5 H :    0.186539
   6 C :   -0.166733
   7 C :   -0.267079
   8 C :   -0.166563
   9 C :   -0.260223
  10 C :   -0.167346
  11 H :    0.118067
  12 H :    0.123395
  13 H :    0.123144
  14 H :    0.150302
  15 H :    0.121542
  16 H :    0.111214
  17 H :    0.130713
  18 H :    0.125432
  19 H :    0.131194
  20 H :    0.147249

  Mayer bond orders larger than 0.100000
B(  0-N ,  1-C ) :   0.9449 B(  0-N ,  2-C ) :   1.0917 B(  0-N , 10-C ) :   1.1545
B(  1-C , 11-H ) :   0.9559 B(  1-C , 12-H ) :   0.9664 B(  1-C , 13-H ) :   0.9659
B(  2-C ,  3-C ) :   1.8112 B(  2-C , 14-H ) :   0.8871 B(  3-C ,  4-O ) :   1.0595
B(  3-C ,  6-C ) :   1.0610 B(  4-O ,  5-H ) :   0.8680 B(  6-C ,  7-C ) :   1.5959
B(  6-C ,  8-C ) :   1.0569 B(  7-C , 15-H ) :   0.9842 B(  7-C , 16-H ) :   0.9826
B(  8-C ,  9-C ) :   0.9021 B(  8-C , 10-C ) :   1.7610 B(  9-C , 17-H ) :   0.9740
B(  9-C , 18-H ) :   0.9781 B(  9-C , 19-H ) :   0.9747 B( 10-C , 20-H ) :   0.8924

FINAL SINGLE POINT ENERGY      -441.388789607842

DIPOLE MOMENT
-------------
                                X             Y             Z
Electronic contribution:      0.03773       5.50558       0.40746
Nuclear contribution   :     -1.15595      -6.00609      -0.22721
                        -----------------------------------------
Total Dipole Moment    :     -1.11821      -0.50051       0.18025
                        -----------------------------------------
Magnitude (a.u.)       :      1.23831
Magnitude (Debye)      :      3.14752

VIBRATIONAL FREQUENCIES
-----------------------

Scaling factor for frequencies =  1.000000000  (already applied!)

   0:         0.00 cm**-1
   1:         0.00 cm**-1
   2:         0.00 cm**-1
   3:         0.00 cm**-1
   4:         0.00 cm**-1
   5:         0.00 cm**-1
   6:        79.55 cm**-1
   7:       102.15 cm**-1
   8:       139.26 cm**-1
   9:       238.97 cm**-1
  10:       271.70 cm**-1
  11:       301.03 cm**-1
  12:       315.00 cm**-1
  13:       330.89 cm**-1
  14:       338.73 cm**-1
  15:       397.86 cm**-1
  16:       448.05 cm**-1
  17:       461.59 cm**-1
  18:       513.29 cm**-1
  19:       539.65 cm**-1
  20:       579.36 cm**-1
  21:       594.30 cm**-1
  22:       695.49 cm**-1
  23:       742.49 cm**-1
  24:       805.44 cm**-1
  25:       822.60 cm**-1
  26:       870.49 cm**-1
  27:       902.09 cm**-1
  28:       914.83 cm**-1
  29:      1015.55 cm**-1
  30:      1043.01 cm**-1
  31:      1063.71 cm**-1
  32:      1117.71 cm**-1
  33:      1142.19 cm**-1
  34:      1144.87 cm**-1
  35:      1219.50 cm**-1
  36:      1235.68 cm**-1
  37:      1309.50 cm**-1
  38:      1344.71 cm**-1
  39:      1406.23 cm**-1
  40:      1422.64 cm**-1
  41:      1425.49 cm**-1
  42:      1463.22 cm**-1
  43:      1472.85 cm**-1
  44:      1474.57 cm**-1
  45:      1493.67 cm**-1
  46:      1502.29 cm**-1
  47:      1513.20 cm**-1
  48:      1536.94 cm**-1
  49:      1652.40 cm**-1
  50:      1691.18 cm**-1
  51:      1753.68 cm**-1
  52:      3051.77 cm**-1
  53:      3054.17 cm**-1
  54:      3108.32 cm**-1
  55:      3130.53 cm**-1
  56:      3154.88 cm**-1
  57:      3169.94 cm**-1
  58:      3200.83 cm**-1
  59:      3223.12 cm**-1
  60:      3249.12 cm**-1
  61:      3284.49 cm**-1
  62:      3831.41 cm**-1

IR SPECTRUM
-----------

 Mode   freq       eps      Int      T**2         TX        TY        TZ
       cm**-1   L/(mol*cm) km/mol    a.u.
----------------------------------------------------------------------------
  6:     79.55   0.000262    1.33  0.001029  ( 0.023825 -0.008294 -0.019815)
  7:    102.15   0.000007    0.04  0.000022  ( 0.001172  0.004585  0.000112)
  8:    139.26   0.000951    4.81  0.002131  (-0.029415 -0.009568  0.034270)
  9:    238.97   0.000306    1.55  0.000399  (-0.011283 -0.002211 -0.016342)
 10:    271.70   0.000227    1.15  0.000261  (-0.010989 -0.008189 -0.008545)
 11:    301.03   0.000075    0.38  0.000078  (-0.006650  0.005644  0.001210)
 12:    315.00   0.000862    4.35  0.000854  (-0.003014  0.022390 -0.018524)
 13:    330.89   0.003979   20.11  0.003753  (-0.039808 -0.014067  0.044386)
 14:    338.73   0.005846   29.54  0.005386  ( 0.028389  0.003395 -0.067592)
 15:    397.86   0.008538   43.15  0.006696  ( 0.019188 -0.020926 -0.076749)
 16:    448.05   0.001983   10.02  0.001381  (-0.036742  0.004156  0.003765)
 17:    461.59   0.000326    1.65  0.000220  ( 0.000289  0.014463 -0.003325)
 18:    513.29   0.001228    6.21  0.000747  (-0.005491  0.010306  0.024706)
 19:    539.65   0.000450    2.27  0.000260  ( 0.014337  0.003982 -0.006218)
 20:    579.36   0.000336    1.70  0.000181  ( 0.009160  0.006072 -0.007746)
 21:    594.30   0.001067    5.39  0.000560  (-0.010830  0.019040  0.008983)
 22:    695.49   0.001341    6.78  0.000602  (-0.019105 -0.008198 -0.013026)
 23:    742.49   0.001255    6.34  0.000528  (-0.000708 -0.007391 -0.021738)
 24:    805.44   0.013274   67.08  0.005143  ( 0.019750  0.001987  0.068913)
 25:    822.60   0.000354    1.79  0.000134  (-0.001639 -0.008706 -0.007476)
 26:    870.49   0.003670   18.55  0.001316  ( 0.015503  0.005763  0.032280)
 27:    902.09   0.003712   18.76  0.001284  ( 0.012275 -0.001909  0.033612)
 28:    914.83   0.000194    0.98  0.000066  ( 0.002473  0.006657  0.003962)
 29:   1015.55   0.002665   13.47  0.000819  (-0.020650 -0.019785  0.001026)
 30:   1043.01   0.003735   18.87  0.001117  (-0.030690 -0.012329  0.004849)
 31:   1063.71   0.000106    0.54  0.000031  (-0.001724 -0.001752  0.005019)
 32:   1117.71   0.002511   12.69  0.000701  ( 0.010984 -0.024024 -0.001771)
 33:   1142.19   0.010697   54.06  0.002923  (-0.034684 -0.041467 -0.000320)
 34:   1144.87   0.006569   33.20  0.001791  ( 0.040085 -0.013312 -0.002570)
 35:   1219.50   0.018354   92.75  0.004697  (-0.067980  0.008445 -0.002017)
 36:   1235.68   0.020651  104.36  0.005215  (-0.006848 -0.071741 -0.004646)
 37:   1309.50   0.000831    4.20  0.000198  (-0.006904 -0.012054 -0.002255)
 38:   1344.71   0.047814  241.63  0.011096  (-0.087438 -0.058675 -0.002815)
 39:   1406.23   0.010470   52.91  0.002323  ( 0.010780  0.046977  0.000682)
 40:   1422.64   0.010691   54.03  0.002345  ( 0.046669  0.012905  0.000783)
 41:   1425.49   0.016756   84.68  0.003668  ( 0.047978 -0.036940 -0.001299)
 42:   1463.22   0.000824    4.16  0.000176  ( 0.010540 -0.006778  0.004323)
 43:   1472.85   0.000496    2.51  0.000105  (-0.009003  0.004901  0.000005)
 44:   1474.57   0.001815    9.17  0.000384  ( 0.001429  0.000406  0.019542)
 45:   1493.67   0.002993   15.12  0.000625  (-0.016348  0.005973  0.017953)
 46:   1502.29   0.005049   25.52  0.001049  (-0.009034 -0.031091  0.000718)
 47:   1513.20   0.001457    7.36  0.000301  ( 0.006674 -0.015997 -0.000327)
 48:   1536.94   0.001746    8.83  0.000355  ( 0.000770 -0.018772  0.001268)
 49:   1652.40   0.024258  122.59  0.004581  ( 0.065341  0.017526 -0.002169)
 50:   1691.18   0.017643   89.16  0.003256  ( 0.056199 -0.009603 -0.002260)
 51:   1753.68   0.038897  196.57  0.006922  (-0.082752  0.007847  0.003470)
 52:   3051.77   0.009122   46.10  0.000933  ( 0.023242 -0.019592  0.002951)
 53:   3054.17   0.015648   79.08  0.001599  (-0.038237 -0.003336 -0.011210)
 54:   3108.32   0.002258   11.41  0.000227  (-0.000844 -0.000107 -0.015031)
 55:   3130.53   0.002871   14.51  0.000286  (-0.006183  0.000899  0.015720)
 56:   3154.88   0.002235   11.30  0.000221  ( 0.009303  0.011590 -0.000467)
 57:   3169.94   0.001276    6.45  0.000126  (-0.000598  0.011164 -0.000808)
 58:   3200.83   0.000525    2.65  0.000051  (-0.004069  0.005881  0.000110)
 59:   3223.12   0.000865    4.37  0.000084  ( 0.002732  0.008724 -0.000360)
 60:   3249.12   0.000353    1.79  0.000034  (-0.003908 -0.004299 -0.000422)
 61:   3284.49   0.001260    6.37  0.000120  ( 0.002225  0.010704 -0.000381)
 62:   3831.41   0.006691   33.81  0.000545  ( 0.021800  0.001265  0.008254)

--------------------------
THERMOCHEMISTRY AT 298.15K
--------------------------

Temperature         ... 298.15 K
Pressure            ... 1.00 atm
Total Mass          ... 137.18 AMU

Throughout the following assumptions are being made:
  (1) The electronic state is orbitally nondegenerate
  (2) There are no thermally accessible electronically excited states
  (3) Hindered rotations indicated by low frequency modes are not
      treated as such but are treated as vibrations and this may
      cause some error
  (4) All equations used are the standard statistical mechanics
      equations for an ideal gas
  (5) All vibrations are strictly harmonic

freq.      79.55  E(vib)   ...       0.49
freq.     102.15  E(vib)   ...       0.46
freq.     139.26  E(vib)   ...       0.42
freq.     238.97  E(vib)   ...       0.32
freq.     271.70  E(vib)   ...       0.29
freq.     301.03  E(vib)   ...       0.26
freq.     315.00  E(vib)   ...       0.25
freq.     330.89  E(vib)   ...       0.24
freq.     338.73  E(vib)   ...       0.23
freq.     397.86  E(vib)   ...       0.20
freq.     448.05  E(vib)   ...       0.17
freq.     461.59  E(vib)   ...       0.16
freq.     513.29  E(vib)   ...       0.13
freq.     539.65  E(vib)   ...       0.12
freq.     579.36  E(vib)   ...       0.11
freq.     594.30  E(vib)   ...       0.10
freq.     695.49  E(vib)   ...       0.07
freq.     742.49  E(vib)   ...       0.06
freq.     805.44  E(vib)   ...       0.05
freq.     822.60  E(vib)   ...       0.05
freq.     870.49  E(vib)   ...       0.04
freq.     902.09  E(vib)   ...       0.03
freq.     914.83  E(vib)   ...       0.03
freq.    1015.55  E(vib)   ...       0.02
freq.    1043.01  E(vib)   ...       0.02
freq.    1063.71  E(vib)   ...       0.02
freq.    1117.71  E(vib)   ...       0.01
freq.    1142.19  E(vib)   ...       0.01
freq.    1144.87  E(vib)   ...       0.01
freq.    1219.50  E(vib)   ...       0.01
freq.    1235.68  E(vib)   ...       0.01
freq.    1309.50  E(vib)   ...       0.01
freq.    1344.71  E(vib)   ...       0.01
freq.    1406.23  E(vib)   ...       0.00
freq.    1422.64  E(vib)   ...       0.00
freq.    1425.49  E(vib)   ...       0.00
freq.    1463.22  E(vib)   ...       0.00
freq.    1472.85  E(vib)   ...       0.00
freq.    1474.57  E(vib)   ...       0.00
freq.    1493.67  E(vib)   ...       0.00
freq.    1502.29  E(vib)   ...       0.00
freq.    1513.20  E(vib)   ...       0.00
freq.    1536.94  E(vib)   ...       0.00
freq.    1652.40  E(vib)   ...       0.00
freq.    1691.18  E(vib)   ...       0.00
freq.    1753.68  E(vib)   ...       0.00
freq.    3051.77  E(vib)   ...       0.00
freq.    3054.17  E(vib)   ...       0.00
freq.    3108.32  E(vib)   ...       0.00
freq.    3130.53  E(vib)   ...       0.00
freq.    3154.88  E(vib)   ...       0.00
freq.    3169.94  E(vib)   ...       0.00
freq.    3200.83  E(vib)   ...       0.00
freq.    3223.12  E(vib)   ...       0.00
freq.    3249.12  E(vib)   ...       0.00
freq.    3284.49  E(vib)   ...       0.00
freq.    3831.41  E(vib)   ...       0.00

------------
INNER ENERGY
------------

The inner energy is: U= E(el) + E(ZPE) + E(vib) + E(rot) + E(trans)
    E(el)   - is the total energy from the electronic structure calculation
              = E(kin-el) + E(nuc-el) + E(el-el) + E(nuc-nuc)
    E(ZPE)  - the the zero temperature vibrational energy from the frequency calculation
    E(vib)  - the the finite temperature correction to E(ZPE) due to population
              of excited vibrational states
    E(rot)  - is the rotational thermal energy
    E(trans)- is the translational thermal energy

Summary of contributions to the inner energy U:
Electronic energy                ...   -441.38878961 Eh
Zero point energy                ...      0.17839919 Eh     111.95 kcal/mol
Thermal vibrational correction   ...      0.00707844 Eh       4.44 kcal/mol
Thermal rotational correction    ...      0.00141627 Eh       0.89 kcal/mol
Thermal translational correction ...      0.00141627 Eh       0.89 kcal/mol
-----------------------------------------------------------------------
Total thermal energy                   -441.20047944 Eh

Summary of corrections to the electronic energy:
(perhaps to be used in another calculation)
Total thermal correction                  0.00991098 Eh       6.22 kcal/mol
Non-thermal (ZPE) correction              0.17839919 Eh     111.95 kcal/mol
-----------------------------------------------------------------------
Total correction                          0.18831017 Eh     118.17 kcal/mol

--------
ENTHALPY
--------

The enthalpy is H = U + kB*T
                kB is Boltzmann's constant
Total free energy                 ...   -441.20047944 Eh
Thermal Enthalpy correction       ...      0.00094421 Eh       0.59 kcal/mol
-----------------------------------------------------------------------
Total Enthalpy                    ...   -441.19953523 Eh

Note: Only C1 symmetry has been detected, increase convergence thresholds
      if your molecule has a higher symmetry. Symmetry factor of 1.0 is
      used for the rotational entropy correction.

Note: Rotational entropy computed according to Herzberg
Infrared and Raman Spectra, Chapter V,1, Van Nostrand Reinhold, 1945
Point Group:  C1, Symmetry Number:   1
Rotational constants in cm-1:     0.058538     0.044573     0.025606

Vibrational entropy computed according to the QRRHO of S. Grimme
Chem.Eur.J. 2012 18 9955

-------
ENTROPY
-------

The entropy contributions are T*S = T*(S(el)+S(vib)+S(rot)+S(trans))
     S(el)   - electronic entropy
     S(vib)  - vibrational entropy
     S(rot)  - rotational entropy
     S(trans)- translational entropy
The entropies will be listed as multiplied by the temperature to get
units of energy

Electronic entropy                ...      0.00000000 Eh      0.00 kcal/mol
Vibrational entropy               ...      0.01168520 Eh      7.33 kcal/mol
Rotational entropy                ...      0.01404931 Eh      8.82 kcal/mol
Translational entropy             ...      0.01931898 Eh     12.12 kcal/mol
-----------------------------------------------------------------------
Final entropy term                ...      0.04505349 Eh     28.27 kcal/mol

In case the symmetry of your molecule has not been determined correctly
or in case you have a reason to use a different symmetry number we print
out the resulting rotational entropy values for sn=1,12 :
 --------------------------------------------------------
|  sn= 1 | S(rot)=       0.01404931 Eh      8.82 kcal/mol|
|  sn= 2 | S(rot)=       0.01339486 Eh      8.41 kcal/mol|
|  sn= 3 | S(rot)=       0.01301202 Eh      8.17 kcal/mol|
|  sn= 4 | S(rot)=       0.01274040 Eh      7.99 kcal/mol|
|  sn= 5 | S(rot)=       0.01252971 Eh      7.86 kcal/mol|
|  sn= 6 | S(rot)=       0.01235757 Eh      7.75 kcal/mol|

                             ****ORCA TERMINATED NORMALLY****
TOTAL RUN TIME: 0 days 0 hours 21 minutes 41 seconds 144 msec
